Date: 2025-01-24 16:56:07
Running on: AGKraus-Super-Server
Temporary directory: /scratch/sachs//CRY_3585292
Executable: /Data/Software/crystal/crystal23/bin/Linux-ifort_i64/v1.0.1_openmpi//properties
Output: /Data/Sachs/projekte/ferroelectric_fluorides/calculations/BaZnF4_oS24_SG63_PBE0_tzvp_wannier/0.prop.out
Properties input data 0.d3
NEWK
0 8
8 8 5
1 0
LOCALI
END
END
END
Creating temporary directory /scratch/sachs//CRY_3585292 on node AGKraus-Super-Server
SCF wavefunction 0.w is available as /scratch/sachs//CRY_3585292/fort.9

         
 *******************************************************************************
 *                                                                             *
 *                               CRYSTAL23                                     *
 *                      public : 1.0.1 - October 2022                          *
 *                       HTTP://WWW.CRYSTAL.UNITO.IT                           *
 *                                                                             *
 *                              MAIN AUTHORS                                   *
 *                                                                             *
 *  R. DOVESI(1,11), V.R. SAUNDERS(2), C. ROETTI(1,11), R. ORLANDO(1,11),      *
 *  C.M. ZICOVICH-WILSON(1,3), F. PASCALE(4), B. CIVALLERI(1,11),              *
 *  K. DOLL(5), N.M. HARRISON(6), I.J. BUSH(7), Ph. D'ARCO(8),                 *
 *  M. LLUNELL(9), M. CAUSA'(10), Y. NOEL(8), L. MASCHIO(1,11), A. ERBA(1,11)  *
 *  M. RE'RAT(14), S. CASASSA(1,11), B.G. SEARLE(2), J.K. DESMARAIS(1)         *
 *                                                                             *
 *        CONTRIBUTIONS TO THE CODE HAVE ALSO BEEN GIVEN BY                    *
 *                                                                             *
 *  M. FERRABONE(1,11), M. DE LA PIERRE(1,11), M. FERRERO(1,11),               *
 *  J. BAIMA(1,11), E. ALBANESE(1,11), M.F. PEINTINGER(12), R. BAST(13),       *
 *  B. KIRTMAN(15), V. LACIVITA(1,11), R. DEMICHELIS(1,16)                     *
 *  G. BRANDEBURG(17), S. SALUSTRO(1,11), G. SANSONE(1,11)                     *
 *  M.T. RUGGIERO(18), L.E. DAGA(1), L. DONA'(1), A. COSSARD(1)                *
 *                                                                             *
 * (1) THEORETICAL CHEMISTRY GROUP - UNIVERSITA' DI TORINO - TORINO (ITALY)    *
 * (2) SCIENTIFIC COMPUTING DEPARTMENT - STFC DARESBURY (UK)                   *
 * (3) UNIVERSIDAD AUTONOMA DEL ESTADO DE MORELOS - CUERNAVACA (MEXICO)        *
 * (4) UNIVERSITE' DE LORRAINE - NANCY (FRANCE)                                *
 * (5) UNIVERSITAET STUTTGART- STUTTGART (GERMANY)                             *
 * (6) IMPERIAL COLLEGE - LONDON (UK)                                          *
 * (7) SCIENTIFIC COMPUTING DEPARTMENT - STFC RAL (UK)                         *
 * (8) UPMC - SORBONNE UNIVERSITES - PARIS (FRANCE)                            *
 * (9) UNIVERSIDAD DE BARCELONA - BARCELONA (SPAIN)                            *
 *(10) UNIVERSITA' DI NAPOLI "FEDERICO II" - NAPOLI (ITALY)                    *
 *(11) NIS - NANOSTRUCTURED INTERFACES AND SURFACES - TORINO (ITALY)           *
 *(12) MPI FUER CHEMISCHE ENERGIEKONVERSION - MUELHEIM AN DER RUHR (GERMANY)   *
 *(13) UNIVERSITY OF TROMSO - TROMSO (NORWAY)                                  *
 *(14) UNIVERSITE' DE PAU ET DES PAYS DE L'ADOUR - PAU (FRANCE)                *
 *(15) UNIVERSITY OF CALIFORNIA SANTA BARBARA - SANTA BARBARA (USA)            *
 *(16) CURTIN UNIVERSITY - PERTH (AUSTRALIA)                                   *
 *(17) UNIVERSITY COLLEGE LONDON - LONDON (UK)                                 *
 *(18) UNIVERSITY OF VERMONT - BURLINGTON (USA)                                *
 *                                                                             *
 *******************************************************************************
 EEEEEEEEEE STARTING  DATE 24 01 2025 TIME 16:56:08.0
 INFORMATION **** SET_MPP **** PCRYSTAL CALCULATION

 *******************************************************************************
 Polarisation path Nr. 0.                                                        
 CRYSTAL - PROPERTIES - TYPE OF CALCULATION :  RESTRICTED CLOSED SHELL
 *******************************************************************************
 KOHN-SHAM HAMILTONIAN

 (EXCHANGE)[CORRELATION] FUNCTIONAL:(PERDEW-BURKE-ERNZERHOF)[PERDEW-BURKE-ERNZERHOF]


 HYBRID EXCHANGE - PERCENTAGE OF FOCK EXCHANGE    25.0000

 DIRECT LATTICE VECTOR COMPONENTS (ANGSTROM)
         2.10290    7.28597    0.00000
        -2.10290    7.28597    0.00000
         0.00000    0.00000    5.86498

 LATTICE PARAMETERS  (ANGSTROM AND DEGREES) - PRIMITIVE CELL
       A          B          C         ALPHA      BETA     GAMMA        VOLUME
    7.58337    7.58337    5.86498     90.0000   90.0000   32.1988     179.72270
 *******************************************************************************
 N. OF ATOMS PER CELL        12 COULOMB OVERLAP TOL          (T1) 10**   -8
 NUMBER OF SHELLS           100 COULOMB PENETRATION TOL      (T2) 10**   -8
 NUMBER OF AO               256 EXCHANGE OVERLAP TOL         (T3) 10**   -8
 N. OF ELECTRONS PER CELL   152 EXCHANGE PSEUDO OVP (F(G))   (T4) 10**   -8
 CORE ELECTRONS PER CELL     52 EXCHANGE PSEUDO OVP (P(G))   (T5) 10**  -16
 N. OF SYMMETRY OPERATORS     4 POLE ORDER IN MONO ZONE                   4
 CORE  PSEUDO POTENTIAL         TOL. ON PSEUDO              (TP) 10**- 6
 *******************************************************************************
   ATOM N.AT.  SHELL    X(A)      Y(A)      Z(A)      EXAD       N.ELECT.
 *******************************************************************************
    1  256 BA    6     0.000     2.056    -0.778   2.732E-01       8.287
    2  256 BA    6    -0.000    -2.056     2.154   2.732E-01       8.287
    3   30 ZN   12    -2.103    -1.401    -0.778   3.903E-01      28.881
    4   30 ZN   12    -2.103     1.401     2.154   3.903E-01      28.881
    5    9 F     8    -2.103    -2.774    -2.244   1.400E+00       9.726
    6    9 F     8    -2.103     2.774     0.689   1.400E+00       9.726
    7    9 F     8    -2.103    -2.774     0.687   1.400E+00       9.726
    8    9 F     8    -2.103     2.774    -2.245   1.400E+00       9.726
    9    9 F     8     0.000     1.209     2.154   1.400E+00       9.694
   10    9 F     8    -0.000    -1.209    -0.778   1.400E+00       9.694
   11    9 F     8     0.000     7.286    -2.245   1.400E+00       9.685
   12    9 F     8     0.000     7.286     0.688   1.400E+00       9.685
 *******************************************************************************
 DE(K)                   0.000E+00  ENERGY LEVEL SHIFTING        0.00000
 TOTAL ENERGY -4.4084015451707E+03  CONVERGENCE ON ENER        2.647E-08
 KIN. ENERGY   4.3658148854372E+03  VIR. COEFF.           1.01555875E+00
 N. OF SCF CYCLES                9  FERMI ENERGY              -0.248E+00
 WEIGHT OF F(I) IN F(I+1)      80
 SHRINK. FACT.(MONKH.)     8  8  5  SHRINKING FACTOR(GILAT NET)        8
 NUMBER OF K POINTS IN THE IBZ  63  CELL VOLUME (A.U.)       1212.828899
 *******************************************************************************

 GCALCO - MAX INDICES DIRECT LATTICE VECTOR    16    16    11
 NO.OF VECTORS CREATED 6999 STARS 1033 RMAX   126.66320 BOHR
 TTTTTTTTTTTTTTTTTTTTTTTTTTTTTT gordsh1     TELAPSE        0.05 TCPU        0.05

 MATRIX SIZE: P(G)  374732, F(G)   64434, P(G) IRR   59822, F(G) IRR   22223
 MAX G-VECTOR INDEX FOR 1- AND 2-ELECTRON INTEGRALS 169


 CAPPA:IS1  8;IS2  8;IS3  5; K PTS MONK NET  63; SYMMOPS:K SPACE   8;G SPACE   4


 CAPPA:IS1  8;IS2  8;IS3  5; K PTS MONK NET  63; SYMMOPS:K SPACE   8;G SPACE   4

 *******************************************************************************
 RESTART WITH NEW K POINTS NET
 *******************************************************************************
 POINTS IN THE IBZ                  63 POINTS(GILAT NET)                63
 SHRINK FACTORS(MONK.)         8  8  5 SHRINK FACTOR(GILAT)              8
 *******************************************************************************
 *** K POINTS COORDINATES (OBLIQUE COORDINATES IN UNITS OF IS =  8)
   1-R(  0  0  0)   2-C(  1  0  0)   3-C(  2  0  0)   4-C(  3  0  0)
   5-R(  4  0  0)   6-C(  1  1  0)   7-C(  2  1  0)   8-C(  3  1  0)
   9-C(  4  1  0)  10-C(  5  1  0)  11-C(  6  1  0)  12-C(  7  1  0)
  13-C(  2  2  0)  14-C(  3  2  0)  15-C(  4  2  0)  16-C(  5  2  0)
  17-C(  6  2  0)  18-C(  3  3  0)  19-C(  4  3  0)  20-C(  5  3  0)
  21-R(  4  4  0)  22-C(  0  0  1)  23-C(  1  0  1)  24-C(  2  0  1)
  25-C(  3  0  1)  26-C(  4  0  1)  27-C(  1  1  1)  28-C(  2  1  1)
  29-C(  3  1  1)  30-C(  4  1  1)  31-C(  5  1  1)  32-C(  6  1  1)
  33-C(  7  1  1)  34-C(  2  2  1)  35-C(  3  2  1)  36-C(  4  2  1)
  37-C(  5  2  1)  38-C(  6  2  1)  39-C(  3  3  1)  40-C(  4  3  1)
  41-C(  5  3  1)  42-C(  4  4  1)  43-C(  0  0  2)  44-C(  1  0  2)
  45-C(  2  0  2)  46-C(  3  0  2)  47-C(  4  0  2)  48-C(  1  1  2)
  49-C(  2  1  2)  50-C(  3  1  2)  51-C(  4  1  2)  52-C(  5  1  2)
  53-C(  6  1  2)  54-C(  7  1  2)  55-C(  2  2  2)  56-C(  3  2  2)
  57-C(  4  2  2)  58-C(  5  2  2)  59-C(  6  2  2)  60-C(  3  3  2)
  61-C(  4  3  2)  62-C(  5  3  2)  63-C(  4  4  2)

 FERMI ENERGY AND DENSITY MATRIX CALCULATION ON COMPUTED EIGENVECTORS
 DENSITY MATRIX AT SCF CYCLE (  9+1)

 INSULATING STATE
 TOP OF VALENCE BANDS -    BAND     76; K    1; EIG -2.4793037E-01 AU
 BOTTOM OF VIRTUAL BANDS - BAND     77; K    1; EIG  5.4465411E-02 AU
 DIRECT ENERGY BAND GAP:   8.2286 eV

 CORE DENSITY MATRIX CALCULATION
 TTTTTTTTTTTTTTTTTTTTTTTTTTTTTT NEWK        TELAPSE        7.19 TCPU        7.19
 INSULATING STATE
 TOP OF VALENCE BANDS -    BAND     76; K    1; EIG -2.4793037E-01 AU
 BOTTOM OF VIRTUAL BANDS - BAND     77; K    1; EIG  5.4465411E-02 AU
 DIRECT ENERGY BAND GAP:   8.2286 eV

 LOCALISATION OF THE CRYSTALLINE ORBITALS
 ACCORDING TO A WANNIER-BOYS MIXED SCHEME

 LIST OF ACTIVE BANDS
      1     2     3     4     5     6     7     8     9    10    11    12    13
     14    15    16    17    18    19    20    21    22    23    24    25    26
     27    28    29    30    31    32    33    34    35    36    37    38    39
     40    41    42    43    44    45    46    47    48    49    50    51    52
     53    54    55    56    57    58    59    60    61    62    63    64    65
     66    67    68    69    70    71    72    73    74    75    76

 CONVERGENCE CRITERION: ABS(ADI(N) - ADI(N-1)) LT  0.1000E-04
 WHERE ADI IS THE ATOMIC DELOCALISATION INDEX AND N IS THE CYCLE NUMBER

 OMEGA IS THE SUM OF THE (X -X0)**2 EXPECTATION VALUES (MARZARI-VANDERBILT'S
 FUNCTIONAL)
 N OF CELLS IN THE MAXIMUM CYCLIC AND UNFOLDED CLUSTERS:  320  975
 N OF VERTICES IN THE UNFOLDED CLUSTER:  2
 TTTTTTTTTTTTTTTTTTTTTTTTTTTTTT SDKVDK      TELAPSE        7.66 TCPU        7.66

 *******************************************************************************
 CYCLE  1, DIPOLE MATRIX ELEMENTS EVALUATED WHEN WANNIER COEFF GT 10**-5
 AUTOMATIC INITIAL GUESS REQUESTED
 TTTTTTTTTTTTTTTTTTTTTTTTTTTTTT WAN0        TELAPSE        9.79 TCPU        9.79
 CLUSTER SIZE =  817 UNIT CELLS
 TTTTTTTTTTTTTTTTTTTTTTTTTTTTTT WANTOL      TELAPSE       10.56 TCPU       10.56
 TTTTTTTTTTTTTTTTTTTTTTTTTTTTTT BOYS1       TELAPSE       66.18 TCPU       66.17

 ATOMIC DELOCALISATION INDEX (BEFORE BOYS)     2.944706025    
 NORM        75.9999979853   (ERR PER WF    0.27E-07)
 BOYS LOCALISED FUNCTIONS AFTER  144 CYCLES (MAX = 500 TOL = 0.1E-07)

 SUM OF THE SQUARES OF THE DISTANCES BETWEEN CENTROIDS = 272107.    
 TTTTTTTTTTTTTTTTTTTTTTTTTTTTTT BOYS3       TELAPSE       66.28 TCPU       66.27
 OMEGA =   96.36278008          ABS(OMEGA(N)-OMEGA(N-1)) =   0.96363E+02
 TTTTTTTTTTTTTTTTTTTTTTTTTTTTTT BOYS1       TELAPSE       72.88 TCPU       72.87

 ATOMIC DELOCALISATION INDEX (AFTER  BOYS)     1.027729960    
 NORM        75.9999979853   (ERR PER WF    0.27E-07)
 TTTTTTTTTTTTTTTTTTTTTTTTTTTTTT WANTST      TELAPSE       72.88 TCPU       72.87

 *******************************************************************************
 CYCLE  2, DIPOLE MATRIX ELEMENTS EVALUATED WHEN WANNIER COEFF GT 10**-5
 TTTTTTTTTTTTTTTTTTTTTTTTTTTTTT WAN0        TELAPSE       74.89 TCPU       74.88
 CLUSTER SIZE =  247 UNIT CELLS
 TTTTTTTTTTTTTTTTTTTTTTTTTTTTTT WANTOL      TELAPSE       75.35 TCPU       75.34
 TTTTTTTTTTTTTTTTTTTTTTTTTTTTTT BOYS1       TELAPSE      123.13 TCPU      123.11

 ATOMIC DELOCALISATION INDEX (BEFORE BOYS)     1.026345777    
 NORM        75.9999998143   (ERR PER WF    0.24E-08)
 BOYS LOCALISED FUNCTIONS AFTER    5 CYCLES (MAX = 500 TOL = 0.1E-07)

 SUM OF THE SQUARES OF THE DISTANCES BETWEEN CENTROIDS = 272184.    
 TTTTTTTTTTTTTTTTTTTTTTTTTTTTTT BOYS3       TELAPSE      123.13 TCPU      123.12
 OMEGA =   90.35120627          ABS(OMEGA(N)-OMEGA(N-1)) =   0.60116E+01
 TTTTTTTTTTTTTTTTTTTTTTTTTTTTTT BOYS1       TELAPSE      128.79 TCPU      128.77

 ATOMIC DELOCALISATION INDEX (AFTER  BOYS)     1.026709929    
 NORM        75.9999998143   (ERR PER WF    0.24E-08)
 TTTTTTTTTTTTTTTTTTTTTTTTTTTTTT WANTST      TELAPSE      128.79 TCPU      128.77

 *******************************************************************************
 CYCLE  3, DIPOLE MATRIX ELEMENTS EVALUATED WHEN WANNIER COEFF GT 10**-5
 TTTTTTTTTTTTTTTTTTTTTTTTTTTTTT WAN0        TELAPSE      130.81 TCPU      130.80
 CLUSTER SIZE =  247 UNIT CELLS
 TTTTTTTTTTTTTTTTTTTTTTTTTTTTTT WANTOL      TELAPSE      131.27 TCPU      131.25
 TTTTTTTTTTTTTTTTTTTTTTTTTTTTTT BOYS1       TELAPSE      179.10 TCPU      179.07

 ATOMIC DELOCALISATION INDEX (BEFORE BOYS)     1.026344881    
 NORM        75.9999998142   (ERR PER WF    0.24E-08)
 BOYS LOCALISED FUNCTIONS AFTER    5 CYCLES (MAX = 500 TOL = 0.1E-07)

 SUM OF THE SQUARES OF THE DISTANCES BETWEEN CENTROIDS = 272184.    
 TTTTTTTTTTTTTTTTTTTTTTTTTTTTTT BOYS3       TELAPSE      179.11 TCPU      179.08
 OMEGA =   90.35134471          ABS(OMEGA(N)-OMEGA(N-1)) =   0.13844E-03
 TTTTTTTTTTTTTTTTTTTTTTTTTTTTTT BOYS1       TELAPSE      184.70 TCPU      184.67

 ATOMIC DELOCALISATION INDEX (AFTER  BOYS)     1.026709563    
 NORM        75.9999998142   (ERR PER WF    0.24E-08)
 TTTTTTTTTTTTTTTTTTTTTTTTTTTTTT WANTST      TELAPSE      184.70 TCPU      184.67

 *******************************************************************************
 FINAL RESULTS 

 WANNIER F LOCALIZATION - CONVERGENCE ACHIEVED     0.3655E-06
 TTTTTTTTTTTTTTTTTTTTTTTTTTTTTT BOYS1       TELAPSE      255.98 TCPU      255.95

 WANNIER ATOMIC POPULATIONS LARGER THAN   0.10E-01 ARE GIVEN
 DATA ARE AS FOLLOWS: ATOM, CELL INDICES AND ATOMIC POPULATION

~~~~~~~~~~~~~~~~~~~~~~~~~~~~~~~~~~~~~~~~~~~~~~~~~~~~~~~~~~~~~~~~~~~~~~~~~~~~~~~~
 WANNIER NUMBER    1 ATOMIC EXTENT  0.9937
 CENTROID'S COORDINATES R0:   -0.39096E+01   -0.30450E+01   -0.17506E+01
 EXPECTATION VALUE OF (R-R0)**2:  0.57239E+00
 SECOND ORDER TENSOR IN CARTESIAN AXES:
         X             Y             Z
 X  0.13849E+00 -0.14533E-01 -0.11376E-01
 Y -0.14533E-01  0.23497E+00  0.52385E-01
 Z -0.11376E-01  0.52385E-01  0.19893E+00
 TENSOR EIGENVALUES:
 A  0.13597E+00  B  0.27484E+00  C  0.16158E+00
 PRINCIPAL AXES:
         X             Y             Z
 A  0.99048E+00  0.90559E-01  0.10364E+00
 B -0.13401E+00  0.80614E+00  0.57635E+00
 C -0.31351E-01 -0.58476E+00  0.81060E+00
 NON BONDING WANNIER FUNCTION
 DISTANCE CENTROID-ATOM    3(  0  0  0) :   0.49013E+00
 ATOMIC POPULATION DATA:
  3 ZN(  0  0  0)  1.0031
 A.O. POPULATIONS OF ATOM    3(  0  0  0):
  -0.0001  -0.0044   0.0720   0.0508   0.0014  -0.0005   0.0001   0.0003
   0.0000  -0.0002  -0.0068  -0.0035   0.0062   0.1897   0.0954   0.0016
   0.0473   0.0233   0.0022   0.0031   0.2156   0.0629   0.0092   0.0014
   0.0019   0.1275   0.0375   0.0055   0.0006   0.0007   0.0463   0.0142
   0.0022
~~~~~~~~~~~~~~~~~~~~~~~~~~~~~~~~~~~~~~~~~~~~~~~~~~~~~~~~~~~~~~~~~~~~~~~~~~~~~~~~
 WANNIER NUMBER    2 ATOMIC EXTENT  0.9980
 CENTROID'S COORDINATES R0:   -0.38228E+01    0.27098E+01    0.45307E+01
 EXPECTATION VALUE OF (R-R0)**2:  0.59503E+00
 SECOND ORDER TENSOR IN CARTESIAN AXES:
         X             Y             Z
 X  0.16442E+00 -0.91849E-02  0.39077E-01
 Y -0.91849E-02  0.16564E+00  0.18191E-01
 Z  0.39077E-01  0.18191E-01  0.26497E+00
 TENSOR EIGENVALUES:
 A  0.14159E+00  B  0.17328E+00  C  0.28017E+00
 PRINCIPAL AXES:
         X             Y             Z
 A  0.77490E+00  0.54193E+00 -0.32532E+00
 B -0.55172E+00  0.83106E+00  0.70245E-01
 C  0.30843E+00  0.12505E+00  0.94299E+00
 NON BONDING WANNIER FUNCTION
 DISTANCE CENTROID-ATOM    4(  0  0  0) :   0.48818E+00
 ATOMIC POPULATION DATA:
  4 ZN(  0  0  0)  1.0010
 A.O. POPULATIONS OF ATOM    4(  0  0  0):
  -0.0001  -0.0044   0.0719   0.0506   0.0013  -0.0009   0.0001  -0.0000
   0.0004  -0.0009  -0.0001  -0.0093   0.0250   0.0039   0.2581   0.0062
   0.0010   0.0642   0.2021   0.0671   0.0084   0.0027   0.0108   0.1210
   0.0403   0.0050   0.0017   0.0065   0.0472   0.0161   0.0018   0.0008
   0.0026
~~~~~~~~~~~~~~~~~~~~~~~~~~~~~~~~~~~~~~~~~~~~~~~~~~~~~~~~~~~~~~~~~~~~~~~~~~~~~~~~
 WANNIER NUMBER    3 ATOMIC EXTENT  0.9988
 CENTROID'S COORDINATES R0:   -0.38802E+01   -0.21680E+01   -0.14905E+01
 EXPECTATION VALUE OF (R-R0)**2:  0.59691E+00
 SECOND ORDER TENSOR IN CARTESIAN AXES:
         X             Y             Z
 X  0.15813E+00  0.23252E-01 -0.15030E-01
 Y  0.23252E-01  0.27687E+00 -0.33217E-02
 Z -0.15030E-01 -0.33217E-02  0.16192E+00
 TENSOR EIGENVALUES:
 A  0.14300E+00  B  0.28157E+00  C  0.17235E+00
 PRINCIPAL AXES:
         X             Y             Z
 A  0.78751E+00 -0.12180E+00  0.60415E+00
 B  0.19088E+00  0.98028E+00 -0.51194E-01
 C -0.58600E+00  0.15564E+00  0.79523E+00
 NON BONDING WANNIER FUNCTION
 DISTANCE CENTROID-ATOM    3(  0  0  0) :   0.48918E+00
 ATOMIC POPULATION DATA:
  3 ZN(  0  0  0)  1.0006
 A.O. POPULATIONS OF ATOM    3(  0  0  0):
  -0.0001  -0.0043   0.0709   0.0502   0.0013  -0.0006  -0.0000   0.0006
   0.0000  -0.0003  -0.0099  -0.0000   0.0093   0.2752   0.0008   0.0023
   0.0689   0.0002   0.0698   0.0043   0.0025   0.1839   0.0317   0.0421
   0.0026   0.0015   0.1099   0.0191   0.0175   0.0010   0.0005   0.0419
   0.0075
~~~~~~~~~~~~~~~~~~~~~~~~~~~~~~~~~~~~~~~~~~~~~~~~~~~~~~~~~~~~~~~~~~~~~~~~~~~~~~~~
 WANNIER NUMBER    4 ATOMIC EXTENT  1.0000
 CENTROID'S COORDINATES R0:   -0.39739E+01    0.26477E+01    0.40706E+01
 EXPECTATION VALUE OF (R-R0)**2:  0.45789E-02
 SECOND ORDER TENSOR IN CARTESIAN AXES:
         X             Y             Z
 X  0.15258E-02  0.51891E-06 -0.94448E-07
 Y  0.51891E-06  0.15264E-02 -0.53282E-06
 Z -0.94448E-07 -0.53282E-06  0.15267E-02
 TENSOR EIGENVALUES:
 A  0.15255E-02  B  0.15262E-02  C  0.15272E-02
 PRINCIPAL AXES:
         X             Y             Z
 A  0.82431E+00 -0.54166E+00 -0.16469E+00
 B  0.49732E+00  0.55377E+00  0.66785E+00
 C -0.27054E+00 -0.63242E+00  0.72585E+00
 NON BONDING WANNIER FUNCTION
 DISTANCE CENTROID-ATOM    4(  0  0  0) :   0.15550E-06
 ATOMIC POPULATION DATA:
  4 ZN(  0  0  0)  1.0000
 A.O. POPULATIONS OF ATOM    4(  0  0  0):
   1.0253  -0.0251  -0.0007   0.0005  -0.0001   0.0000   0.0000   0.0000
   0.0000   0.0000   0.0000   0.0000   0.0000   0.0000   0.0000   0.0000
   0.0000  -0.0000   0.0000   0.0000   0.0000   0.0000   0.0000  -0.0000
   0.0000   0.0000   0.0000   0.0000  -0.0000   0.0000  -0.0000  -0.0000
   0.0000
~~~~~~~~~~~~~~~~~~~~~~~~~~~~~~~~~~~~~~~~~~~~~~~~~~~~~~~~~~~~~~~~~~~~~~~~~~~~~~~~
 WANNIER NUMBER    5 ATOMIC EXTENT  1.0000
 CENTROID'S COORDINATES R0:   -0.40556E+01    0.26466E+01    0.40093E+01
 EXPECTATION VALUE OF (R-R0)**2:  0.41811E-01
 SECOND ORDER TENSOR IN CARTESIAN AXES:
         X             Y             Z
 X  0.15241E-01  0.20000E-04  0.20339E-02
 Y  0.20000E-04  0.12477E-01  0.16932E-04
 Z  0.20339E-02  0.16932E-04  0.14093E-01
 TENSOR EIGENVALUES:
 A  0.16781E-01  B  0.12477E-01  C  0.12554E-01
 PRINCIPAL AXES:
         X             Y             Z
 A  0.79734E+00  0.60794E-02  0.60350E+00
 B  0.62927E-02  0.99981E+00 -0.18385E-01
 C -0.60350E+00  0.18457E-01  0.79715E+00
 NON BONDING WANNIER FUNCTION
 DISTANCE CENTROID-ATOM    4(  0  0  0) :   0.10218E+00
 ATOMIC POPULATION DATA:
  4 ZN(  0  0  0)  1.0000
 A.O. POPULATIONS OF ATOM    4(  0  0  0):
  -0.0063   0.2658  -0.0035  -0.0063   0.0003  -0.0001  -0.0000   0.0000
  -0.0000   0.4923   0.0001   0.2781  -0.0132  -0.0000  -0.0075   0.0000
  -0.0000   0.0000   0.0000   0.0000   0.0000   0.0000   0.0000   0.0000
   0.0000   0.0000   0.0000   0.0000   0.0000   0.0000  -0.0000   0.0000
   0.0000
~~~~~~~~~~~~~~~~~~~~~~~~~~~~~~~~~~~~~~~~~~~~~~~~~~~~~~~~~~~~~~~~~~~~~~~~~~~~~~~~
 WANNIER NUMBER    6 ATOMIC EXTENT  1.0000
 CENTROID'S COORDINATES R0:   -0.40599E+01   -0.26859E+01   -0.15108E+01
 EXPECTATION VALUE OF (R-R0)**2:  0.41797E-01
 SECOND ORDER TENSOR IN CARTESIAN AXES:
         X             Y             Z
 X  0.15569E-01  0.13270E-02  0.13954E-02
 Y  0.13270E-02  0.13088E-01  0.64440E-03
 Z  0.13954E-02  0.64440E-03  0.13140E-01
 TENSOR EIGENVALUES:
 A  0.16792E-01  B  0.12537E-01  C  0.12469E-01
 PRINCIPAL AXES:
         X             Y             Z
 A  0.84423E+00  0.36995E+00  0.38784E+00
 B -0.53426E+00  0.63893E+00  0.55348E+00
 C -0.43036E-01 -0.67447E+00  0.73705E+00
 NON BONDING WANNIER FUNCTION
 DISTANCE CENTROID-ATOM    3(  0  0  0) :   0.10217E+00
 ATOMIC POPULATION DATA:
  3 ZN(  0  0  0)  1.0000
 A.O. POPULATIONS OF ATOM    3(  0  0  0):
  -0.0063   0.2658  -0.0035  -0.0063   0.0004  -0.0001  -0.0000  -0.0000
  -0.0000   0.5454   0.1080   0.1171  -0.0146  -0.0029  -0.0031   0.0001
   0.0000   0.0000   0.0000   0.0000   0.0000   0.0000   0.0000   0.0000
   0.0000   0.0000   0.0000   0.0000   0.0000   0.0000   0.0000   0.0000
   0.0000
~~~~~~~~~~~~~~~~~~~~~~~~~~~~~~~~~~~~~~~~~~~~~~~~~~~~~~~~~~~~~~~~~~~~~~~~~~~~~~~~
 WANNIER NUMBER    7 ATOMIC EXTENT  0.9987
 CENTROID'S COORDINATES R0:   -0.38566E+01    0.31216E+01    0.40973E+01
 EXPECTATION VALUE OF (R-R0)**2:  0.59501E+00
 SECOND ORDER TENSOR IN CARTESIAN AXES:
         X             Y             Z
 X  0.15618E+00  0.32008E-01 -0.11840E-01
 Y  0.32008E-01  0.27429E+00  0.93871E-02
 Z -0.11840E-01  0.93871E-02  0.16454E+00
 TENSOR EIGENVALUES:
 A  0.14018E+00  B  0.28273E+00  C  0.17210E+00
 PRINCIPAL AXES:
         X             Y             Z
 A  0.83585E+00 -0.23424E+00  0.49647E+00
 B  0.24020E+00  0.96928E+00  0.52919E-01
 C -0.49361E+00  0.75020E-01  0.86644E+00
 NON BONDING WANNIER FUNCTION
 DISTANCE CENTROID-ATOM    4(  0  0  0) :   0.48896E+00
 ATOMIC POPULATION DATA:
  4 ZN(  0  0  0)  1.0006
 A.O. POPULATIONS OF ATOM    4(  0  0  0):
  -0.0001  -0.0043   0.0711   0.0502   0.0014  -0.0004   0.0001   0.0004
  -0.0000  -0.0005  -0.0096  -0.0000   0.0142   0.2717   0.0005   0.0036
   0.0677   0.0001   0.0829   0.0063   0.0011   0.1576   0.0432   0.0500
   0.0038   0.0007   0.0942   0.0260   0.0206   0.0015   0.0002   0.0363
   0.0103
~~~~~~~~~~~~~~~~~~~~~~~~~~~~~~~~~~~~~~~~~~~~~~~~~~~~~~~~~~~~~~~~~~~~~~~~~~~~~~~~
 WANNIER NUMBER    8 ATOMIC EXTENT  1.0000
 CENTROID'S COORDINATES R0:   -0.39739E+01   -0.26477E+01   -0.14710E+01
 EXPECTATION VALUE OF (R-R0)**2:  0.45789E-02
 SECOND ORDER TENSOR IN CARTESIAN AXES:
         X             Y             Z
 X  0.15259E-02 -0.88841E-06 -0.85984E-07
 Y -0.88841E-06  0.15265E-02  0.16629E-06
 Z -0.85984E-07  0.16629E-06  0.15264E-02
 TENSOR EIGENVALUES:
 A  0.15253E-02  B  0.15272E-02  C  0.15264E-02
 PRINCIPAL AXES:
         X             Y             Z
 A  0.81110E+00  0.58445E+00 -0.23154E-01
 B -0.56515E+00  0.79328E+00  0.22653E+00
 C  0.15076E+00 -0.17065E+00  0.97373E+00
 NON BONDING WANNIER FUNCTION
 DISTANCE CENTROID-ATOM    3(  0  0  0) :   0.15231E-06
 ATOMIC POPULATION DATA:
  3 ZN(  0  0  0)  1.0000
 A.O. POPULATIONS OF ATOM    3(  0  0  0):
   1.0253  -0.0251  -0.0007   0.0005  -0.0001   0.0000   0.0000   0.0000
   0.0000   0.0000   0.0000   0.0000   0.0000   0.0000   0.0000   0.0000
   0.0000   0.0000   0.0000   0.0000   0.0000   0.0000   0.0000   0.0000
   0.0000   0.0000  -0.0000   0.0000  -0.0000   0.0000   0.0000  -0.0000
   0.0000
~~~~~~~~~~~~~~~~~~~~~~~~~~~~~~~~~~~~~~~~~~~~~~~~~~~~~~~~~~~~~~~~~~~~~~~~~~~~~~~~
 WANNIER NUMBER    9 ATOMIC EXTENT  1.0000
 CENTROID'S COORDINATES R0:   -0.39887E+01   -0.26265E+01   -0.13721E+01
 EXPECTATION VALUE OF (R-R0)**2:  0.41858E-01
 SECOND ORDER TENSOR IN CARTESIAN AXES:
         X             Y             Z
 X  0.12581E-01 -0.16614E-03 -0.60958E-03
 Y -0.16614E-03  0.12707E-01  0.85692E-03
 Z -0.60958E-03  0.85692E-03  0.16570E-01
 TENSOR EIGENVALUES:
 A  0.12466E-01  B  0.12547E-01  C  0.16845E-01
 PRINCIPAL AXES:
         X             Y             Z
 A  0.84702E+00  0.53136E+00  0.14862E-01
 B -0.51102E+00  0.82167E+00 -0.25242E+00
 C -0.14634E+00  0.20621E+00  0.96750E+00
 NON BONDING WANNIER FUNCTION
 DISTANCE CENTROID-ATOM    3(  0  0  0) :   0.10215E+00
 ATOMIC POPULATION DATA:
  3 ZN(  0  0  0)  1.0000
 A.O. POPULATIONS OF ATOM    3(  0  0  0):
  -0.0063   0.2657  -0.0035  -0.0063   0.0003  -0.0001  -0.0000  -0.0000
  -0.0000   0.0161   0.0333   0.7213  -0.0004  -0.0009  -0.0195   0.0000
   0.0000   0.0001   0.0000   0.0000   0.0000   0.0000   0.0000   0.0000
   0.0000   0.0000   0.0000   0.0000   0.0000   0.0000   0.0000   0.0000
   0.0000
~~~~~~~~~~~~~~~~~~~~~~~~~~~~~~~~~~~~~~~~~~~~~~~~~~~~~~~~~~~~~~~~~~~~~~~~~~~~~~~~
 WANNIER NUMBER   10 ATOMIC EXTENT  1.0000
 CENTROID'S COORDINATES R0:   -0.38982E+01    0.25943E+01    0.40276E+01
 EXPECTATION VALUE OF (R-R0)**2:  0.41866E-01
 SECOND ORDER TENSOR IN CARTESIAN AXES:
         X             Y             Z
 X  0.14889E-01 -0.16820E-02 -0.13622E-02
 Y -0.16820E-02  0.13686E-01  0.95154E-03
 Z -0.13622E-02  0.95154E-03  0.13290E-01
 TENSOR EIGENVALUES:
 A  0.16850E-01  B  0.12499E-01  C  0.12517E-01
 PRINCIPAL AXES:
         X             Y             Z
 A  0.74112E+00 -0.52133E+00 -0.42303E+00
 B  0.66132E+00  0.67550E+00  0.32612E+00
 C  0.11574E+00 -0.52145E+00  0.84539E+00
 NON BONDING WANNIER FUNCTION
 DISTANCE CENTROID-ATOM    4(  0  0  0) :   0.10215E+00
 ATOMIC POPULATION DATA:
  4 ZN(  0  0  0)  1.0000
 A.O. POPULATIONS OF ATOM    4(  0  0  0):
  -0.0063   0.2657  -0.0035  -0.0062   0.0003  -0.0001  -0.0000  -0.0000
  -0.0000   0.4232   0.2104   0.1371  -0.0114  -0.0057  -0.0037   0.0001
   0.0000   0.0000   0.0000   0.0000   0.0000   0.0000   0.0000   0.0000
   0.0000   0.0000   0.0000   0.0000   0.0000   0.0000   0.0000   0.0000
   0.0000
~~~~~~~~~~~~~~~~~~~~~~~~~~~~~~~~~~~~~~~~~~~~~~~~~~~~~~~~~~~~~~~~~~~~~~~~~~~~~~~~
 WANNIER NUMBER   11 ATOMIC EXTENT  1.0000
 CENTROID'S COORDINATES R0:   -0.77758E-05    0.13769E+02   -0.42418E+01
 EXPECTATION VALUE OF (R-R0)**2:  0.45500E-01
 SECOND ORDER TENSOR IN CARTESIAN AXES:
         X             Y             Z
 X  0.15066E-01  0.11818E-04 -0.78875E-05
 Y  0.11818E-04  0.15223E-01 -0.13955E-03
 Z -0.78875E-05 -0.13955E-03  0.15210E-01
 TENSOR EIGENVALUES:
 A  0.15065E-01  B  0.15357E-01  C  0.15077E-01
 PRINCIPAL AXES:
         X             Y             Z
 A  0.97698E+00 -0.17775E+00 -0.11797E+00
 B  0.48130E-01  0.72238E+00 -0.68982E+00
 C  0.20784E+00  0.66826E+00  0.71430E+00
 NON BONDING WANNIER FUNCTION
 DISTANCE CENTROID-ATOM   11(  0  0  0) :   0.49967E-04
 ATOMIC POPULATION DATA:
 11 F (  0  0  0)  1.0000
 A.O. POPULATIONS OF ATOM   11(  0  0  0):
   0.3814   0.6289   0.0029  -0.0117  -0.0016   0.0000   0.0000   0.0000
   0.0000   0.0000   0.0000   0.0000   0.0000   0.0000   0.0000   0.0000
   0.0000   0.0000   0.0000
~~~~~~~~~~~~~~~~~~~~~~~~~~~~~~~~~~~~~~~~~~~~~~~~~~~~~~~~~~~~~~~~~~~~~~~~~~~~~~~~
 WANNIER NUMBER   12 ATOMIC EXTENT  1.0000
 CENTROID'S COORDINATES R0:   -0.10185E-04    0.13769E+02    0.12998E+01
 EXPECTATION VALUE OF (R-R0)**2:  0.45468E-01
 SECOND ORDER TENSOR IN CARTESIAN AXES:
         X             Y             Z
 X  0.15064E-01 -0.26655E-05  0.16330E-04
 Y -0.26655E-05  0.15179E-01  0.10655E-03
 Z  0.16330E-04  0.10655E-03  0.15226E-01
 TENSOR EIGENVALUES:
 A  0.15059E-01  B  0.15098E-01  C  0.15312E-01
 PRINCIPAL AXES:
         X             Y             Z
 A  0.94063E+00  0.23671E+00 -0.24327E+00
 B -0.33648E+00  0.74453E+00 -0.57658E+00
 C  0.44636E-01  0.62421E+00  0.77998E+00
 NON BONDING WANNIER FUNCTION
 DISTANCE CENTROID-ATOM   12(  0  0  0) :   0.34002E-04
 ATOMIC POPULATION DATA:
 12 F (  0  0  0)  1.0000
 A.O. POPULATIONS OF ATOM   12(  0  0  0):
   0.3814   0.6289   0.0029  -0.0117  -0.0016   0.0000   0.0000   0.0000
   0.0000   0.0000   0.0000   0.0000   0.0000   0.0000   0.0000   0.0000
   0.0000   0.0000   0.0000
~~~~~~~~~~~~~~~~~~~~~~~~~~~~~~~~~~~~~~~~~~~~~~~~~~~~~~~~~~~~~~~~~~~~~~~~~~~~~~~~
 WANNIER NUMBER   13 ATOMIC EXTENT  1.0000
 CENTROID'S COORDINATES R0:   -0.24482E-04   -0.22856E+01   -0.14710E+01
 EXPECTATION VALUE OF (R-R0)**2:  0.45422E-01
 SECOND ORDER TENSOR IN CARTESIAN AXES:
         X             Y             Z
 X  0.15277E-01 -0.12123E-04  0.14368E-05
 Y -0.12123E-04  0.15072E-01 -0.54427E-06
 Z  0.14368E-05 -0.54427E-06  0.15073E-01
 TENSOR EIGENVALUES:
 A  0.15277E-01  B  0.15071E-01  C  0.15073E-01
 PRINCIPAL AXES:
         X             Y             Z
 A  0.99823E+00 -0.59047E-01  0.71753E-02
 B  0.54072E-01  0.95108E+00  0.30416E+00
 C -0.24784E-01 -0.30324E+00  0.95259E+00
 NON BONDING WANNIER FUNCTION
 DISTANCE CENTROID-ATOM   10(  0  0  0) :   0.44599E-04
 ATOMIC POPULATION DATA:
 10 F (  0  0  0)  1.0000
 A.O. POPULATIONS OF ATOM   10(  0  0  0):
   0.3815   0.6290   0.0028  -0.0117  -0.0016   0.0000   0.0000   0.0000
   0.0000   0.0000   0.0000   0.0000   0.0000   0.0000   0.0000   0.0000
   0.0000   0.0000   0.0000
~~~~~~~~~~~~~~~~~~~~~~~~~~~~~~~~~~~~~~~~~~~~~~~~~~~~~~~~~~~~~~~~~~~~~~~~~~~~~~~~
 WANNIER NUMBER   14 ATOMIC EXTENT  1.0000
 CENTROID'S COORDINATES R0:   -0.13117E-04    0.22856E+01    0.40706E+01
 EXPECTATION VALUE OF (R-R0)**2:  0.45429E-01
 SECOND ORDER TENSOR IN CARTESIAN AXES:
         X             Y             Z
 X  0.15264E-01  0.68383E-05 -0.81557E-05
 Y  0.68383E-05  0.15073E-01 -0.91889E-05
 Z -0.81557E-05 -0.91889E-05  0.15092E-01
 TENSOR EIGENVALUES:
 A  0.15264E-01  B  0.15070E-01  C  0.15095E-01
 PRINCIPAL AXES:
         X             Y             Z
 A  0.99806E+00  0.38167E-01 -0.49288E-01
 B -0.16860E-01  0.92646E+00  0.37601E+00
 C  0.60014E-01 -0.37445E+00  0.92530E+00
 NON BONDING WANNIER FUNCTION
 DISTANCE CENTROID-ATOM    9(  0  0  0) :   0.40953E-04
 ATOMIC POPULATION DATA:
  9 F (  0  0  0)  1.0000
 A.O. POPULATIONS OF ATOM    9(  0  0  0):
   0.3815   0.6290   0.0028  -0.0117  -0.0016   0.0000   0.0000   0.0000
   0.0000   0.0000   0.0000   0.0000   0.0000   0.0000   0.0000   0.0000
   0.0000   0.0000   0.0000
~~~~~~~~~~~~~~~~~~~~~~~~~~~~~~~~~~~~~~~~~~~~~~~~~~~~~~~~~~~~~~~~~~~~~~~~~~~~~~~~
 WANNIER NUMBER   15 ATOMIC EXTENT  1.0000
 CENTROID'S COORDINATES R0:   -0.39739E+01   -0.52427E+01   -0.42403E+01
 EXPECTATION VALUE OF (R-R0)**2:  0.45385E-01
 SECOND ORDER TENSOR IN CARTESIAN AXES:
         X             Y             Z
 X  0.15118E-01  0.47318E-06  0.42361E-06
 Y  0.47318E-06  0.15122E-01  0.62951E-05
 Z  0.42361E-06  0.62951E-05  0.15146E-01
 TENSOR EIGENVALUES:
 A  0.15118E-01  B  0.15120E-01  C  0.15147E-01
 PRINCIPAL AXES:
         X             Y             Z
 A  0.98659E+00 -0.16179E+00  0.21668E-01
 B  0.16224E+00  0.95733E+00 -0.23914E+00
 C  0.17947E-01  0.23945E+00  0.97074E+00
 NON BONDING WANNIER FUNCTION
 DISTANCE CENTROID-ATOM    5(  0  0  0) :   0.10377E-03
 ATOMIC POPULATION DATA:
  5 F (  0  0  0)  1.0000
 A.O. POPULATIONS OF ATOM    5(  0  0  0):
   0.3815   0.6290   0.0028  -0.0117  -0.0017   0.0000   0.0000   0.0000
   0.0000   0.0000   0.0000   0.0000   0.0000   0.0000   0.0000   0.0000
  -0.0000   0.0000  -0.0000
~~~~~~~~~~~~~~~~~~~~~~~~~~~~~~~~~~~~~~~~~~~~~~~~~~~~~~~~~~~~~~~~~~~~~~~~~~~~~~~~
 WANNIER NUMBER   16 ATOMIC EXTENT  1.0000
 CENTROID'S COORDINATES R0:   -0.39739E+01    0.52427E+01    0.13013E+01
 EXPECTATION VALUE OF (R-R0)**2:  0.45388E-01
 SECOND ORDER TENSOR IN CARTESIAN AXES:
         X             Y             Z
 X  0.15121E-01 -0.17795E-05 -0.14745E-05
 Y -0.17795E-05  0.15123E-01 -0.56806E-05
 Z -0.14745E-05 -0.56806E-05  0.15145E-01
 TENSOR EIGENVALUES:
 A  0.15119E-01  B  0.15123E-01  C  0.15146E-01
 PRINCIPAL AXES:
         X             Y             Z
 A  0.76012E+00  0.62477E+00  0.17855E+00
 B -0.64856E+00  0.74633E+00  0.14953E+00
 C -0.39835E-01 -0.22946E+00  0.97250E+00
 NON BONDING WANNIER FUNCTION
 DISTANCE CENTROID-ATOM    6(  0  0  0) :   0.10405E-03
 ATOMIC POPULATION DATA:
  6 F (  0  0  0)  1.0000
 A.O. POPULATIONS OF ATOM    6(  0  0  0):
   0.3815   0.6290   0.0028  -0.0117  -0.0017   0.0000   0.0000   0.0000
   0.0000   0.0000   0.0000   0.0000   0.0000   0.0000   0.0000   0.0000
  -0.0000   0.0000   0.0000
~~~~~~~~~~~~~~~~~~~~~~~~~~~~~~~~~~~~~~~~~~~~~~~~~~~~~~~~~~~~~~~~~~~~~~~~~~~~~~~~
 WANNIER NUMBER   17 ATOMIC EXTENT  1.0000
 CENTROID'S COORDINATES R0:   -0.39739E+01   -0.52427E+01    0.12985E+01
 EXPECTATION VALUE OF (R-R0)**2:  0.45389E-01
 SECOND ORDER TENSOR IN CARTESIAN AXES:
         X             Y             Z
 X  0.15121E-01  0.17731E-05  0.13539E-05
 Y  0.17731E-05  0.15122E-01 -0.55874E-05
 Z  0.13539E-05 -0.55874E-05  0.15146E-01
 TENSOR EIGENVALUES:
 A  0.15119E-01  B  0.15123E-01  C  0.15148E-01
 PRINCIPAL AXES:
         X             Y             Z
 A  0.73073E+00 -0.66144E+00 -0.16893E+00
 B  0.68177E+00  0.71977E+00  0.13083E+00
 C  0.35054E-01 -0.21078E+00  0.97691E+00
 NON BONDING WANNIER FUNCTION
 DISTANCE CENTROID-ATOM    7(  0  0  0) :   0.10387E-03
 ATOMIC POPULATION DATA:
  7 F (  0  0  0)  1.0000
 A.O. POPULATIONS OF ATOM    7(  0  0  0):
   0.3815   0.6290   0.0028  -0.0117  -0.0017   0.0000   0.0000   0.0000
   0.0000   0.0000   0.0000   0.0000   0.0000   0.0000   0.0000   0.0000
  -0.0000   0.0000   0.0000
~~~~~~~~~~~~~~~~~~~~~~~~~~~~~~~~~~~~~~~~~~~~~~~~~~~~~~~~~~~~~~~~~~~~~~~~~~~~~~~~
 WANNIER NUMBER   18 ATOMIC EXTENT  1.0000
 CENTROID'S COORDINATES R0:   -0.39739E+01    0.52427E+01   -0.42431E+01
 EXPECTATION VALUE OF (R-R0)**2:  0.45386E-01
 SECOND ORDER TENSOR IN CARTESIAN AXES:
         X             Y             Z
 X  0.15121E-01 -0.12792E-05  0.19561E-05
 Y -0.12792E-05  0.15121E-01  0.35667E-05
 Z  0.19561E-05  0.35667E-05  0.15144E-01
 TENSOR EIGENVALUES:
 A  0.15119E-01  B  0.15122E-01  C  0.15144E-01
 PRINCIPAL AXES:
         X             Y             Z
 A  0.68566E+00  0.71058E+00 -0.15795E+00
 B -0.72413E+00  0.68797E+00 -0.48405E-01
 C  0.74271E-01  0.14757E+00  0.98626E+00
 NON BONDING WANNIER FUNCTION
 DISTANCE CENTROID-ATOM    8(  0  0  0) :   0.10465E-03
 ATOMIC POPULATION DATA:
  8 F (  0  0  0)  1.0000
 A.O. POPULATIONS OF ATOM    8(  0  0  0):
   0.3815   0.6290   0.0028  -0.0117  -0.0017   0.0000   0.0000   0.0000
   0.0000   0.0000   0.0000   0.0000   0.0000   0.0000   0.0000   0.0000
   0.0000   0.0000   0.0000
~~~~~~~~~~~~~~~~~~~~~~~~~~~~~~~~~~~~~~~~~~~~~~~~~~~~~~~~~~~~~~~~~~~~~~~~~~~~~~~~
 WANNIER NUMBER   19 ATOMIC EXTENT  1.0000
 CENTROID'S COORDINATES R0:   -0.38987E+01   -0.27161E+01   -0.14802E+01
 EXPECTATION VALUE OF (R-R0)**2:  0.41906E-01
 SECOND ORDER TENSOR IN CARTESIAN AXES:
         X             Y             Z
 X  0.14874E-01 -0.21508E-02 -0.28684E-03
 Y -0.21508E-02  0.14473E-01  0.24789E-03
 Z -0.28684E-03  0.24789E-03  0.12559E-01
 TENSOR EIGENVALUES:
 A  0.16867E-01  B  0.12508E-01  C  0.12531E-01
 PRINCIPAL AXES:
         X             Y             Z
 A  0.73644E+00 -0.67080E+00 -0.87633E-01
 B  0.61930E+00  0.61635E+00  0.48640E+00
 C -0.27227E+00 -0.41248E+00  0.86933E+00
 NON BONDING WANNIER FUNCTION
 DISTANCE CENTROID-ATOM    3(  0  0  0) :   0.10215E+00
 ATOMIC POPULATION DATA:
  3 ZN(  0  0  0)  1.0000
 A.O. POPULATIONS OF ATOM    3(  0  0  0):
  -0.0063   0.2659  -0.0035  -0.0063   0.0004  -0.0001  -0.0000  -0.0000
  -0.0000   0.4181   0.3462   0.0063  -0.0113  -0.0094  -0.0002   0.0001
   0.0001   0.0000   0.0000   0.0000   0.0000   0.0000   0.0000   0.0000
   0.0000   0.0000   0.0000   0.0000   0.0000   0.0000   0.0000   0.0000
   0.0000
~~~~~~~~~~~~~~~~~~~~~~~~~~~~~~~~~~~~~~~~~~~~~~~~~~~~~~~~~~~~~~~~~~~~~~~~~~~~~~~~
 WANNIER NUMBER   20 ATOMIC EXTENT  1.0000
 CENTROID'S COORDINATES R0:   -0.39435E+01    0.27441E+01    0.40852E+01
 EXPECTATION VALUE OF (R-R0)**2:  0.41865E-01
 SECOND ORDER TENSOR IN CARTESIAN AXES:
         X             Y             Z
 X  0.12863E-01  0.12000E-02  0.14091E-03
 Y  0.12000E-02  0.16358E-01  0.57178E-03
 Z  0.14091E-03  0.57178E-03  0.12644E-01
 TENSOR EIGENVALUES:
 A  0.12477E-01  B  0.16813E-01  C  0.12575E-01
 PRINCIPAL AXES:
         X             Y             Z
 A  0.86916E+00 -0.32380E+00  0.37378E+00
 B  0.29239E+00  0.94605E+00  0.13964E+00
 C -0.39883E+00 -0.12086E-01  0.91695E+00
 NON BONDING WANNIER FUNCTION
 DISTANCE CENTROID-ATOM    4(  0  0  0) :   0.10217E+00
 ATOMIC POPULATION DATA:
  4 ZN(  0  0  0)  1.0000
 A.O. POPULATIONS OF ATOM    4(  0  0  0):
  -0.0063   0.2658  -0.0034  -0.0063   0.0004  -0.0001  -0.0000  -0.0000
  -0.0000   0.0680   0.6868   0.0157  -0.0018  -0.0185  -0.0004   0.0000
   0.0001   0.0000   0.0000   0.0000   0.0000   0.0000   0.0000   0.0000
   0.0000   0.0000   0.0000   0.0000   0.0000   0.0000   0.0000   0.0000
   0.0000
~~~~~~~~~~~~~~~~~~~~~~~~~~~~~~~~~~~~~~~~~~~~~~~~~~~~~~~~~~~~~~~~~~~~~~~~~~~~~~~~
 WANNIER NUMBER   21 ATOMIC EXTENT  0.9994
 CENTROID'S COORDINATES R0:   -0.43357E+01   -0.24047E+01   -0.13240E+01
 EXPECTATION VALUE OF (R-R0)**2:  0.65126E+00
 SECOND ORDER TENSOR IN CARTESIAN AXES:
         X             Y             Z
 X  0.27367E+00 -0.58738E-01 -0.32274E-01
 Y -0.58738E-01  0.20728E+00  0.45017E-01
 Z -0.32274E-01  0.45017E-01  0.17031E+00
 TENSOR EIGENVALUES:
 A  0.32486E+00  B  0.18667E+00  C  0.13974E+00
 PRINCIPAL AXES:
         X             Y             Z
 A  0.79442E+00 -0.51818E+00 -0.31684E+00
 B  0.60371E+00  0.61648E+00  0.50546E+00
 C -0.66591E-01 -0.59283E+00  0.80257E+00
 NON BONDING WANNIER FUNCTION
 DISTANCE CENTROID-ATOM    3(  0  0  0) :   0.45991E+00
 ATOMIC POPULATION DATA:
  3 ZN(  0  0  0)  1.0003
 A.O. POPULATIONS OF ATOM    3(  0  0  0):
  -0.0000  -0.0037   0.0582   0.0413   0.0012   0.0006  -0.0002  -0.0000
   0.0001  -0.0059  -0.0026  -0.0009   0.1562   0.0707   0.0255   0.0388
   0.0174   0.0064   0.0264   0.0771   0.0091   0.0231   0.1902   0.0157
   0.0463   0.0054   0.0137   0.1142   0.0059   0.0185   0.0019   0.0049
   0.0450
~~~~~~~~~~~~~~~~~~~~~~~~~~~~~~~~~~~~~~~~~~~~~~~~~~~~~~~~~~~~~~~~~~~~~~~~~~~~~~~~
 WANNIER NUMBER   22 ATOMIC EXTENT  0.9988
 CENTROID'S COORDINATES R0:   -0.42865E+01    0.28813E+01    0.43161E+01
 EXPECTATION VALUE OF (R-R0)**2:  0.65155E+00
 SECOND ORDER TENSOR IN CARTESIAN AXES:
         X             Y             Z
 X  0.24987E+00 -0.44507E-01 -0.49394E-01
 Y -0.44507E-01  0.19995E+00  0.59370E-01
 Z -0.49394E-01  0.59370E-01  0.20174E+00
 TENSOR EIGENVALUES:
 A  0.32169E+00  B  0.18852E+00  C  0.14134E+00
 PRINCIPAL AXES:
         X             Y             Z
 A  0.67918E+00 -0.50708E+00 -0.53064E+00
 B  0.73280E+00  0.50921E+00  0.45133E+00
 C  0.41349E-01 -0.69539E+00  0.71744E+00
 NON BONDING WANNIER FUNCTION
 DISTANCE CENTROID-ATOM    4(  0  0  0) :   0.46099E+00
 ATOMIC POPULATION DATA:
  4 ZN(  0  0  0)  1.0006
 A.O. POPULATIONS OF ATOM    4(  0  0  0):
  -0.0000  -0.0038   0.0590   0.0417   0.0012   0.0001   0.0007   0.0002
   0.0001  -0.0043  -0.0024  -0.0026   0.1134   0.0640   0.0715   0.0283
   0.0160   0.0176   0.0003   0.1418   0.0404   0.0048   0.1398   0.0002
   0.0851   0.0239   0.0028   0.0840   0.0001   0.0340   0.0087   0.0010
   0.0332
~~~~~~~~~~~~~~~~~~~~~~~~~~~~~~~~~~~~~~~~~~~~~~~~~~~~~~~~~~~~~~~~~~~~~~~~~~~~~~~~
 WANNIER NUMBER   23 ATOMIC EXTENT  1.0000
 CENTROID'S COORDINATES R0:   -0.39485E+01   -0.25622E+01   -0.15207E+01
 EXPECTATION VALUE OF (R-R0)**2:  0.41833E-01
 SECOND ORDER TENSOR IN CARTESIAN AXES:
         X             Y             Z
 X  0.12770E-01  0.90902E-03 -0.56273E-03
 Y  0.90902E-03  0.15524E-01 -0.17905E-02
 Z -0.56273E-03 -0.17905E-02  0.13538E-01
 TENSOR EIGENVALUES:
 A  0.12511E-01  B  0.16858E-01  C  0.12464E-01
 PRINCIPAL AXES:
         X             Y             Z
 A  0.73509E+00 -0.49621E+00 -0.46197E+00
 B  0.25299E+00  0.83295E+00 -0.49212E+00
 C  0.62900E+00  0.24488E+00  0.73783E+00
 NON BONDING WANNIER FUNCTION
 DISTANCE CENTROID-ATOM    3(  0  0  0) :   0.10213E+00
 ATOMIC POPULATION DATA:
  3 ZN(  0  0  0)  1.0000
 A.O. POPULATIONS OF ATOM    3(  0  0  0):
  -0.0063   0.2656  -0.0035  -0.0062   0.0003  -0.0001  -0.0000  -0.0000
  -0.0000   0.0479   0.5401   0.1828  -0.0013  -0.0145  -0.0050   0.0000
   0.0001   0.0000   0.0000   0.0000   0.0000   0.0000   0.0000   0.0000
   0.0000   0.0000   0.0000   0.0000   0.0000   0.0000   0.0000   0.0000
   0.0000
~~~~~~~~~~~~~~~~~~~~~~~~~~~~~~~~~~~~~~~~~~~~~~~~~~~~~~~~~~~~~~~~~~~~~~~~~~~~~~~~
 WANNIER NUMBER   24 ATOMIC EXTENT  0.9974
 CENTROID'S COORDINATES R0:   -0.37948E+01    0.22572E+01    0.42385E+01
 EXPECTATION VALUE OF (R-R0)**2:  0.64442E+00
 SECOND ORDER TENSOR IN CARTESIAN AXES:
         X             Y             Z
 X  0.19008E+00 -0.42228E-01  0.33890E-01
 Y -0.42228E-01  0.27724E+00 -0.47254E-01
 Z  0.33890E-01 -0.47254E-01  0.17709E+00
 TENSOR EIGENVALUES:
 A  0.17923E+00  B  0.31734E+00  C  0.14785E+00
 PRINCIPAL AXES:
         X             Y             Z
 A  0.75072E+00  0.51993E+00  0.40754E+00
 B -0.38056E+00  0.84462E+00 -0.37655E+00
 C -0.54000E+00  0.12759E+00  0.83194E+00
 NON BONDING WANNIER FUNCTION
 DISTANCE CENTROID-ATOM    4(  0  0  0) :   0.46125E+00
 ATOMIC POPULATION DATA:
  4 ZN(  0  0  0)  1.0013
 A.O. POPULATIONS OF ATOM    4(  0  0  0):
  -0.0000  -0.0037   0.0598   0.0423   0.0010  -0.0005  -0.0001   0.0004
   0.0001  -0.0014  -0.0065  -0.0012   0.0379   0.1777   0.0326   0.0095
   0.0444   0.0082   0.0179   0.0051   0.1010   0.0763   0.1285   0.0108
   0.0031   0.0598   0.0456   0.0772   0.0046   0.0012   0.0218   0.0172
   0.0305
~~~~~~~~~~~~~~~~~~~~~~~~~~~~~~~~~~~~~~~~~~~~~~~~~~~~~~~~~~~~~~~~~~~~~~~~~~~~~~~~
 WANNIER NUMBER   25 ATOMIC EXTENT  0.9971
 CENTROID'S COORDINATES R0:   -0.39156E+01   -0.25123E+01   -0.10039E+01
 EXPECTATION VALUE OF (R-R0)**2:  0.59025E+00
 SECOND ORDER TENSOR IN CARTESIAN AXES:
         X             Y             Z
 X  0.15270E+00 -0.10641E-01  0.17256E-01
 Y -0.10641E-01  0.17194E+00  0.34185E-01
 Z  0.17256E-01  0.34185E-01  0.26561E+00
 TENSOR EIGENVALUES:
 A  0.13996E+00  B  0.17214E+00  C  0.27815E+00
 PRINCIPAL AXES:
         X             Y             Z
 A  0.80050E+00  0.54133E+00 -0.25722E+00
 B -0.58996E+00  0.78733E+00 -0.17904E+00
 C  0.10560E+00  0.29507E+00  0.94962E+00
 NON BONDING WANNIER FUNCTION
 DISTANCE CENTROID-ATOM    3(  0  0  0) :   0.48975E+00
 ATOMIC POPULATION DATA:
  3 ZN(  0  0  0)  1.0014
 A.O. POPULATIONS OF ATOM    3(  0  0  0):
  -0.0001  -0.0044   0.0721   0.0508   0.0013  -0.0010  -0.0000   0.0001
   0.0007  -0.0001  -0.0007  -0.0093   0.0032   0.0194   0.2612   0.0008
   0.0049   0.0656   0.2173   0.0071   0.0591   0.0002   0.0104   0.1301
   0.0043   0.0350   0.0001   0.0062   0.0506   0.0017   0.0126   0.0000
   0.0025
~~~~~~~~~~~~~~~~~~~~~~~~~~~~~~~~~~~~~~~~~~~~~~~~~~~~~~~~~~~~~~~~~~~~~~~~~~~~~~~~
 WANNIER NUMBER   26 ATOMIC EXTENT  1.0000
 CENTROID'S COORDINATES R0:   -0.39983E+01    0.26057E+01    0.41605E+01
 EXPECTATION VALUE OF (R-R0)**2:  0.41852E-01
 SECOND ORDER TENSOR IN CARTESIAN AXES:
         X             Y             Z
 X  0.12741E-01  0.40132E-03 -0.91577E-03
 Y  0.40132E-03  0.13251E-01 -0.15767E-02
 Z -0.91577E-03 -0.15767E-02  0.15861E-01
 TENSOR EIGENVALUES:
 A  0.12477E-01  B  0.12530E-01  C  0.16846E-01
 PRINCIPAL AXES:
         X             Y             Z
 A  0.76011E+00  0.48553E+00  0.43185E+00
 B -0.60521E+00  0.77092E+00  0.19850E+00
 C -0.23655E+00 -0.41224E+00  0.87983E+00
 NON BONDING WANNIER FUNCTION
 DISTANCE CENTROID-ATOM    4(  0  0  0) :   0.10215E+00
 ATOMIC POPULATION DATA:
  4 ZN(  0  0  0)  1.0000
 A.O. POPULATIONS OF ATOM    4(  0  0  0):
  -0.0063   0.2656  -0.0034  -0.0062   0.0003  -0.0001  -0.0000  -0.0000
  -0.0000   0.0439   0.1302   0.5966  -0.0012  -0.0035  -0.0161   0.0000
   0.0000   0.0001   0.0000   0.0000   0.0000   0.0000   0.0000   0.0000
   0.0000   0.0000   0.0000   0.0000   0.0000   0.0000   0.0000  -0.0000
   0.0000
~~~~~~~~~~~~~~~~~~~~~~~~~~~~~~~~~~~~~~~~~~~~~~~~~~~~~~~~~~~~~~~~~~~~~~~~~~~~~~~~
 WANNIER NUMBER   27 ATOMIC EXTENT  0.9920
 CENTROID'S COORDINATES R0:   -0.28130E-01    0.47548E+01   -0.15404E+01
 EXPECTATION VALUE OF (R-R0)**2:  0.31448E+01
 SECOND ORDER TENSOR IN CARTESIAN AXES:
         X             Y             Z
 X  0.89203E+00 -0.16030E-01  0.14695E-02
 Y -0.16030E-01  0.13558E+01 -0.36603E-01
 Z  0.14695E-02 -0.36603E-01  0.89703E+00
 TENSOR EIGENVALUES:
 A  0.89146E+00  B  0.13592E+01  C  0.89414E+00
 PRINCIPAL AXES:
         X             Y             Z
 A  0.99667E+00  0.28380E-01 -0.76485E-01
 B -0.34432E-01  0.99628E+00 -0.79006E-01
 C  0.73958E-01  0.81376E-01  0.99394E+00
 NON BONDING WANNIER FUNCTION
 DISTANCE CENTROID-ATOM    1(  0  0  0) :   0.87311E+00
 ATOMIC POPULATION DATA:
  1 BA(  0  0  0)  1.0040
 A.O. POPULATIONS OF ATOM    1(  0  0  0):
   0.0370   0.2467  -0.0150   0.0001   0.1137   0.0007   0.0007   0.6161
   0.0040   0.0000   0.0000   0.0000   0.0000   0.0000   0.0000   0.0000
   0.0000  -0.0000   0.0000
~~~~~~~~~~~~~~~~~~~~~~~~~~~~~~~~~~~~~~~~~~~~~~~~~~~~~~~~~~~~~~~~~~~~~~~~~~~~~~~~
 WANNIER NUMBER   28 ATOMIC EXTENT  0.9911
 CENTROID'S COORDINATES R0:    0.17377E+00   -0.36369E+01    0.49031E+01
 EXPECTATION VALUE OF (R-R0)**2:  0.31707E+01
 SECOND ORDER TENSOR IN CARTESIAN AXES:
         X             Y             Z
 X  0.90909E+00  0.26655E-01  0.92405E-01
 Y  0.26655E-01  0.91862E+00  0.11414E+00
 Z  0.92405E-01  0.11414E+00  0.13430E+01
 TENSOR EIGENVALUES:
 A  0.89310E+00  B  0.88668E+00  C  0.13909E+01
 PRINCIPAL AXES:
         X             Y             Z
 A  0.69587E+00  0.64896E+00 -0.30759E+00
 B -0.69100E+00  0.72171E+00 -0.40592E-01
 C  0.19565E+00  0.24079E+00  0.95065E+00
 NON BONDING WANNIER FUNCTION
 DISTANCE CENTROID-ATOM    2(  0  0  0) :   0.88579E+00
 ATOMIC POPULATION DATA:
  2 BA(  0  0  0)  1.0045
 A.O. POPULATIONS OF ATOM    2(  0  0  0):
   0.0328   0.2123  -0.0013   0.0046   0.0083   0.1074   0.0247   0.0415
   0.5740   0.0000   0.0000   0.0000   0.0000   0.0000   0.0000   0.0000
   0.0002   0.0000   0.0000
~~~~~~~~~~~~~~~~~~~~~~~~~~~~~~~~~~~~~~~~~~~~~~~~~~~~~~~~~~~~~~~~~~~~~~~~~~~~~~~~
 WANNIER NUMBER   29 ATOMIC EXTENT  1.0472
 CENTROID'S COORDINATES R0:    0.50384E+00    0.13883E+02    0.14145E+01
 EXPECTATION VALUE OF (R-R0)**2:  0.16010E+01
 SECOND ORDER TENSOR IN CARTESIAN AXES:
         X             Y             Z
 X  0.68462E+00  0.71047E-01  0.69169E-01
 Y  0.71047E-01  0.46391E+00  0.18674E-01
 Z  0.69169E-01  0.18674E-01  0.45250E+00
 TENSOR EIGENVALUES:
 A  0.72438E+00  B  0.44327E+00  C  0.43338E+00
 PRINCIPAL AXES:
         X             Y             Z
 A  0.92813E+00  0.27142E+00  0.25476E+00
 B -0.23856E+00  0.95905E+00 -0.15268E+00
 C -0.28577E+00  0.80931E-01  0.95487E+00
 BONDING WANNIER FUNCTION BETWEEN ATOMS:
 A:  12 F (  0  0  0) X  0.000000E+00 Y  0.137685E+02 Z  0.129984E+01 (AU)
 B:   4 ZN(  1  0  0) X  0.444089E-15 Y  0.164162E+02 Z  0.407064E+01 (AU)
 DISTANCE OF THE CENTROID FROM THE ATOMS A,B AND FROM THE A-B BOND:
  0.52919E+00  0.37051E+01  0.50385E+00
 POLARISATION FRACTION (0: COVALENT; 1: VERY IONIC)  0.91558E+00
 ATOMIC POPULATION DATA:
 12 F (  0  0  0)  0.9771   4 ZN(  1  0  0)  0.0152
 A.O. POPULATIONS OF ATOM   12(  0  0  0):
   0.0011  -0.0076   0.0641   0.1073   0.0720   0.2219   0.0094   0.0095
   0.2169   0.0093   0.0093   0.2420   0.0109   0.0110   0.0000   0.0000
   0.0000   0.0000   0.0000
 A.O. POPULATIONS OF ATOM    4(  1  0  0):
  -0.0000   0.0000   0.0000  -0.0002   0.0004   0.0042   0.0032   0.0029
   0.0035   0.0000   0.0000   0.0000   0.0000   0.0000   0.0000  -0.0000
   0.0000   0.0000   0.0000   0.0001   0.0002   0.0000   0.0001  -0.0000
  -0.0000  -0.0000  -0.0000  -0.0000   0.0000   0.0002   0.0002   0.0000
   0.0002
~~~~~~~~~~~~~~~~~~~~~~~~~~~~~~~~~~~~~~~~~~~~~~~~~~~~~~~~~~~~~~~~~~~~~~~~~~~~~~~~
 WANNIER NUMBER   30 ATOMIC EXTENT  1.0441
 CENTROID'S COORDINATES R0:    0.50436E+00    0.13918E+02   -0.42884E+01
 EXPECTATION VALUE OF (R-R0)**2:  0.15958E+01
 SECOND ORDER TENSOR IN CARTESIAN AXES:
         X             Y             Z
 X  0.68591E+00  0.96887E-01 -0.26146E-01
 Y  0.96887E-01  0.47342E+00 -0.10227E-01
 Z -0.26146E-01 -0.10227E-01  0.43647E+00
 TENSOR EIGENVALUES:
 A  0.72617E+00  B  0.43588E+00  C  0.43375E+00
 PRINCIPAL AXES:
         X             Y             Z
 A  0.92808E+00  0.35967E+00 -0.96460E-01
 B -0.36478E+00  0.93018E+00 -0.41347E-01
 C  0.74854E-01  0.73559E-01  0.99448E+00
 BONDING WANNIER FUNCTION BETWEEN ATOMS:
 A:  11 F (  0  0  0) X  0.000000E+00 Y  0.137685E+02 Z -0.424176E+01 (AU)
 B:   4 ZN(  1  0 -1) X  0.444089E-15 Y  0.164162E+02 Z -0.701257E+01 (AU)
 DISTANCE OF THE CENTROID FROM THE ATOMS A,B AND FROM THE A-B BOND:
  0.52820E+00  0.37303E+01  0.51007E+00
 POLARISATION FRACTION (0: COVALENT; 1: VERY IONIC)  0.92839E+00
 ATOMIC POPULATION DATA:
 11 F (  0  0  0)  0.9785   4 ZN(  1  0 -1)  0.0133
 A.O. POPULATIONS OF ATOM   11(  0  0  0):
   0.0011  -0.0076   0.0640   0.1070   0.0719   0.2229   0.0176   0.0012
   0.2178   0.0170   0.0012   0.2432   0.0197   0.0016   0.0000   0.0000
   0.0000   0.0000   0.0000
 A.O. POPULATIONS OF ATOM    4(  1  0 -1):
  -0.0000   0.0000   0.0000  -0.0002   0.0004   0.0033   0.0032   0.0018
   0.0037   0.0000   0.0000   0.0000   0.0000   0.0000   0.0000  -0.0000
   0.0000   0.0000   0.0000   0.0001   0.0002   0.0000   0.0001  -0.0000
  -0.0000  -0.0000  -0.0000  -0.0000   0.0000   0.0002   0.0001   0.0000
   0.0002
~~~~~~~~~~~~~~~~~~~~~~~~~~~~~~~~~~~~~~~~~~~~~~~~~~~~~~~~~~~~~~~~~~~~~~~~~~~~~~~~
 WANNIER NUMBER   31 ATOMIC EXTENT  1.0350
 CENTROID'S COORDINATES R0:   -0.44311E+01    0.51413E+01    0.99504E+00
 EXPECTATION VALUE OF (R-R0)**2:  0.16816E+01
 SECOND ORDER TENSOR IN CARTESIAN AXES:
         X             Y             Z
 X  0.69224E+00  0.59098E-01  0.19671E+00
 Y  0.59098E-01  0.43092E+00  0.47981E-01
 Z  0.19671E+00  0.47981E-01  0.55842E+00
 TENSOR EIGENVALUES:
 A  0.84699E+00  B  0.42183E+00  C  0.41277E+00
 PRINCIPAL AXES:
         X             Y             Z
 A  0.79867E+00  0.17967E+00  0.57432E+00
 B -0.52450E+00  0.67570E+00  0.51800E+00
 C -0.29500E+00 -0.71495E+00  0.63390E+00
 NON BONDING WANNIER FUNCTION
 DISTANCE CENTROID-ATOM    6(  0  0  0) :   0.55956E+00
 ATOMIC POPULATION DATA:
  6 F (  0  0  0)  0.9829   1 BA( -1  1  0)  0.0123
 A.O. POPULATIONS OF ATOM    6(  0  0  0):
   0.0013  -0.0081   0.0705   0.1076   0.0882   0.1593   0.0063   0.0733
   0.1532   0.0053   0.0696   0.1721   0.0059   0.0783   0.0000   0.0000
   0.0000  -0.0000   0.0000
 A.O. POPULATIONS OF ATOM    1( -1  1  0):
  -0.0000  -0.0015   0.0058  -0.0009  -0.0001  -0.0004  -0.0004  -0.0001
  -0.0002   0.0000   0.0004   0.0001   0.0002   0.0001   0.0000   0.0052
   0.0007   0.0020   0.0015
~~~~~~~~~~~~~~~~~~~~~~~~~~~~~~~~~~~~~~~~~~~~~~~~~~~~~~~~~~~~~~~~~~~~~~~~~~~~~~~~
 WANNIER NUMBER   32 ATOMIC EXTENT  1.0350
 CENTROID'S COORDINATES R0:   -0.44313E+01    0.51417E+01   -0.39374E+01
 EXPECTATION VALUE OF (R-R0)**2:  0.16817E+01
 SECOND ORDER TENSOR IN CARTESIAN AXES:
         X             Y             Z
 X  0.69234E+00  0.59118E-01 -0.19698E+00
 Y  0.59118E-01  0.43088E+00 -0.47574E-01
 Z -0.19698E+00 -0.47574E-01  0.55849E+00
 TENSOR EIGENVALUES:
 A  0.84725E+00  B  0.42141E+00  C  0.41306E+00
 PRINCIPAL AXES:
         X             Y             Z
 A  0.79876E+00  0.17904E+00 -0.57440E+00
 B -0.52088E+00  0.68360E+00 -0.51125E+00
 C  0.30113E+00  0.70755E+00  0.63929E+00
 NON BONDING WANNIER FUNCTION
 DISTANCE CENTROID-ATOM    8(  0  0  0) :   0.55935E+00
 ATOMIC POPULATION DATA:
  8 F (  0  0  0)  0.9829   1 BA( -1  1  0)  0.0123
 A.O. POPULATIONS OF ATOM    8(  0  0  0):
   0.0013  -0.0081   0.0705   0.1076   0.0882   0.1596   0.0062   0.0732
   0.1534   0.0053   0.0694   0.1724   0.0059   0.0781   0.0000   0.0000
   0.0000  -0.0000   0.0000
 A.O. POPULATIONS OF ATOM    1( -1  1  0):
  -0.0000  -0.0015   0.0058  -0.0009  -0.0001  -0.0005  -0.0004  -0.0001
  -0.0002   0.0000   0.0004   0.0001   0.0002   0.0001   0.0000   0.0052
   0.0007   0.0020   0.0015
~~~~~~~~~~~~~~~~~~~~~~~~~~~~~~~~~~~~~~~~~~~~~~~~~~~~~~~~~~~~~~~~~~~~~~~~~~~~~~~~
 WANNIER NUMBER   33 ATOMIC EXTENT  1.0316
 CENTROID'S COORDINATES R0:   -0.39761E+01   -0.57371E+01    0.10802E+01
 EXPECTATION VALUE OF (R-R0)**2:  0.16447E+01
 SECOND ORDER TENSOR IN CARTESIAN AXES:
         X             Y             Z
 X  0.43290E+00  0.63424E-03  0.39570E-03
 Y  0.63424E-03  0.73331E+00  0.14326E+00
 Z  0.39570E-03  0.14326E+00  0.47853E+00
 TENSOR EIGENVALUES:
 A  0.43290E+00  B  0.79763E+00  C  0.41421E+00
 PRINCIPAL AXES:
         X             Y             Z
 A  0.99998E+00 -0.40709E-02  0.41095E-02
 B  0.20307E-02  0.91228E+00  0.40957E+00
 C -0.54163E-02 -0.40955E+00  0.91227E+00
 NON BONDING WANNIER FUNCTION
 DISTANCE CENTROID-ATOM    7(  0  0  0) :   0.54038E+00
 ATOMIC POPULATION DATA:
  7 F (  0  0  0)  0.9845
 A.O. POPULATIONS OF ATOM    7(  0  0  0):
   0.0014  -0.0086   0.0739   0.1211   0.0822   0.0000   0.2020   0.0359
   0.0000   0.1917   0.0335   0.0000   0.2138   0.0375   0.0000   0.0000
   0.0000   0.0000   0.0000
~~~~~~~~~~~~~~~~~~~~~~~~~~~~~~~~~~~~~~~~~~~~~~~~~~~~~~~~~~~~~~~~~~~~~~~~~~~~~~~~
 WANNIER NUMBER   34 ATOMIC EXTENT  1.0685
 CENTROID'S COORDINATES R0:   -0.25495E+00   -0.24630E+01   -0.19207E+01
 EXPECTATION VALUE OF (R-R0)**2:  0.16757E+01
 SECOND ORDER TENSOR IN CARTESIAN AXES:
         X             Y             Z
 X  0.53291E+00  0.49378E-01  0.12719E+00
 Y  0.49378E-01  0.44305E+00  0.84706E-01
 Z  0.12719E+00  0.84706E-01  0.69979E+00
 TENSOR EIGENVALUES:
 A  0.46442E+00  B  0.41562E+00  C  0.79570E+00
 PRINCIPAL AXES:
         X             Y             Z
 A  0.86891E+00  0.60346E-01 -0.49128E+00
 B -0.18263E+00  0.96160E+00 -0.20489E+00
 C  0.46005E+00  0.26776E+00  0.84656E+00
 BONDING WANNIER FUNCTION BETWEEN ATOMS:
 A:  10 F (  0  0  0) X -0.499795E-17 Y -0.228557E+01 Z -0.147096E+01 (AU)
 B:   3 ZN(  0  0  0) X -0.397391E+01 Y -0.264768E+01 Z -0.147096E+01 (AU)
 DISTANCE OF THE CENTROID FROM THE ATOMS A,B AND FROM THE A-B BOND:
  0.54654E+00  0.37506E+01  0.47520E+00
 POLARISATION FRACTION (0: COVALENT; 1: VERY IONIC)  0.86468E+00
 ATOMIC POPULATION DATA:
  3 ZN(  0  0  0)  0.0229  10 F (  0  0  0)  0.9671
 A.O. POPULATIONS OF ATOM    3(  0  0  0):
  -0.0000  -0.0000   0.0001  -0.0003   0.0003   0.0074   0.0118   0.0000
   0.0022  -0.0000  -0.0000  -0.0000   0.0002   0.0000   0.0000  -0.0000
  -0.0000  -0.0000   0.0000   0.0001   0.0000   0.0001   0.0000  -0.0000
  -0.0000   0.0000  -0.0001   0.0000   0.0001   0.0003  -0.0000   0.0006
  -0.0000
 A.O. POPULATIONS OF ATOM   10(  0  0  0):
   0.0012  -0.0075   0.0647   0.1080   0.0731   0.0457   0.0243   0.1695
   0.0447   0.0236   0.1612   0.0525   0.0263   0.1799   0.0000   0.0000
   0.0000   0.0000   0.0000
~~~~~~~~~~~~~~~~~~~~~~~~~~~~~~~~~~~~~~~~~~~~~~~~~~~~~~~~~~~~~~~~~~~~~~~~~~~~~~~~
 WANNIER NUMBER   35 ATOMIC EXTENT  1.1338
 CENTROID'S COORDINATES R0:    0.50822E+00    0.24827E+01    0.39056E+01
 EXPECTATION VALUE OF (R-R0)**2:  0.17581E+01
 SECOND ORDER TENSOR IN CARTESIAN AXES:
         X             Y             Z
 X  0.80361E+00  0.97978E-01 -0.83253E-01
 Y  0.97978E-01  0.47272E+00 -0.29005E-01
 Z -0.83253E-01 -0.29005E-01  0.48180E+00
 TENSOR EIGENVALUES:
 A  0.85138E+00  B  0.44388E+00  C  0.46286E+00
 PRINCIPAL AXES:
         X             Y             Z
 A  0.93735E+00  0.26028E+00 -0.23158E+00
 B -0.18053E+00  0.93140E+00  0.31608E+00
 C  0.29796E+00 -0.25447E+00  0.92004E+00
 BONDING WANNIER FUNCTION BETWEEN ATOMS:
 A:   9 F (  0  0  0) X  0.499795E-17 Y  0.228557E+01 Z  0.407064E+01 (AU)
 B:   4 ZN(  1 -1  0) X  0.397391E+01 Y  0.264768E+01 Z  0.407064E+01 (AU)
 DISTANCE OF THE CENTROID FROM THE ATOMS A,B AND FROM THE A-B BOND:
  0.56955E+00  0.34735E+01  0.22316E+00
 POLARISATION FRACTION (0: COVALENT; 1: VERY IONIC)  0.73736E+00
 ATOMIC POPULATION DATA:
  4 ZN(  0  0  0)  0.0105   9 F (  0  0  0)  0.9377   4 ZN(  1 -1  0)  0.0505
 A.O. POPULATIONS OF ATOM    4(  0  0  0):
  -0.0000   0.0000   0.0002  -0.0004   0.0006   0.0053   0.0032   0.0008
   0.0003  -0.0000  -0.0000  -0.0000   0.0002   0.0000   0.0000  -0.0000
  -0.0000  -0.0000   0.0000   0.0000   0.0000   0.0001   0.0000  -0.0000
  -0.0000   0.0000  -0.0000  -0.0000   0.0000   0.0000  -0.0000   0.0001
   0.0001
 A.O. POPULATIONS OF ATOM    9(  0  0  0):
   0.0015  -0.0078   0.0682   0.1145   0.0775   0.1695   0.0287   0.0217
   0.1662   0.0278   0.0206   0.1952   0.0311   0.0230   0.0000   0.0000
   0.0000   0.0000   0.0000
 A.O. POPULATIONS OF ATOM    4(  1 -1  0):
  -0.0000   0.0000   0.0001  -0.0010   0.0011   0.0198   0.0283  -0.0000
   0.0003   0.0000  -0.0000  -0.0000   0.0003  -0.0000   0.0000   0.0000
   0.0000  -0.0000   0.0002   0.0000   0.0000   0.0006   0.0000  -0.0000
  -0.0000   0.0000  -0.0000   0.0000   0.0001   0.0000  -0.0000   0.0006
  -0.0000
~~~~~~~~~~~~~~~~~~~~~~~~~~~~~~~~~~~~~~~~~~~~~~~~~~~~~~~~~~~~~~~~~~~~~~~~~~~~~~~~
 WANNIER NUMBER   36 ATOMIC EXTENT  1.0315
 CENTROID'S COORDINATES R0:   -0.39733E+01   -0.57369E+01   -0.40233E+01
 EXPECTATION VALUE OF (R-R0)**2:  0.16461E+01
 SECOND ORDER TENSOR IN CARTESIAN AXES:
         X             Y             Z
 X  0.43263E+00 -0.29000E-03  0.25083E-03
 Y -0.29000E-03  0.73510E+00 -0.14359E+00
 Z  0.25083E-03 -0.14359E+00  0.47841E+00
 TENSOR EIGENVALUES:
 A  0.43263E+00  B  0.79935E+00  C  0.41416E+00
 PRINCIPAL AXES:
         X             Y             Z
 A  0.99998E+00  0.33588E-02  0.50556E-02
 B -0.10012E-02  0.91280E+00 -0.40840E+00
 C -0.59865E-02  0.40839E+00  0.91279E+00
 NON BONDING WANNIER FUNCTION
 DISTANCE CENTROID-ATOM    5(  0  0  0) :   0.53969E+00
 ATOMIC POPULATION DATA:
  5 F (  0  0  0)  0.9846
 A.O. POPULATIONS OF ATOM    5(  0  0  0):
   0.0014  -0.0086   0.0738   0.1209   0.0821   0.0000   0.2026   0.0356
   0.0000   0.1921   0.0332   0.0000   0.2144   0.0371   0.0000   0.0000
   0.0000   0.0000   0.0000
~~~~~~~~~~~~~~~~~~~~~~~~~~~~~~~~~~~~~~~~~~~~~~~~~~~~~~~~~~~~~~~~~~~~~~~~~~~~~~~~
 WANNIER NUMBER   37 ATOMIC EXTENT  0.9884
 CENTROID'S COORDINATES R0:   -0.77497E+00   -0.35062E+01    0.38349E+01
 EXPECTATION VALUE OF (R-R0)**2:  0.31498E+01
 SECOND ORDER TENSOR IN CARTESIAN AXES:
         X             Y             Z
 X  0.12613E+01 -0.16481E+00  0.11477E+00
 Y -0.16481E+00  0.96284E+00 -0.48853E-01
 Z  0.11477E+00 -0.48853E-01  0.92559E+00
 TENSOR EIGENVALUES:
 A  0.13695E+01  B  0.88829E+00  C  0.89199E+00
 PRINCIPAL AXES:
         X             Y             Z
 A  0.88047E+00 -0.38936E+00  0.27051E+00
 B  0.47029E+00  0.64503E+00 -0.60230E+00
 C  0.60025E-01  0.65752E+00  0.75104E+00
 NON BONDING WANNIER FUNCTION
 DISTANCE CENTROID-ATOM    2(  0  0  0) :   0.89416E+00
 ATOMIC POPULATION DATA:
  2 BA(  0  0  0)  1.0059
 A.O. POPULATIONS OF ATOM    2(  0  0  0):
   0.0329   0.2125  -0.0011   0.0930   0.0199   0.0086   0.4927   0.1011
   0.0461   0.0000   0.0000   0.0000   0.0000   0.0000   0.0000   0.0000
   0.0000   0.0000   0.0002
~~~~~~~~~~~~~~~~~~~~~~~~~~~~~~~~~~~~~~~~~~~~~~~~~~~~~~~~~~~~~~~~~~~~~~~~~~~~~~~~
 WANNIER NUMBER   38 ATOMIC EXTENT  0.9890
 CENTROID'S COORDINATES R0:    0.63416E+00   -0.35339E+01    0.35524E+01
 EXPECTATION VALUE OF (R-R0)**2:  0.31557E+01
 SECOND ORDER TENSOR IN CARTESIAN AXES:
         X             Y             Z
 X  0.11372E+01  0.12841E+00 -0.20114E+00
 Y  0.12841E+00  0.95210E+00 -0.10362E+00
 Z -0.20114E+00 -0.10362E+00  0.10664E+01
 TENSOR EIGENVALUES:
 A  0.13710E+01  B  0.88634E+00  C  0.89834E+00
 PRINCIPAL AXES:
         X             Y             Z
 A  0.71424E+00  0.36646E+00 -0.59630E+00
 B -0.43538E+00  0.89970E+00  0.31425E-01
 C  0.54801E+00  0.23717E+00  0.80215E+00
 NON BONDING WANNIER FUNCTION
 DISTANCE CENTROID-ATOM    2(  0  0  0) :   0.89108E+00
 ATOMIC POPULATION DATA:
  2 BA(  0  0  0)  1.0055
 A.O. POPULATIONS OF ATOM    2(  0  0  0):
   0.0327   0.2116  -0.0009   0.0624   0.0171   0.0419   0.3305   0.0870
   0.2229   0.0000   0.0000   0.0000   0.0000   0.0000   0.0000   0.0000
   0.0001   0.0000   0.0002
~~~~~~~~~~~~~~~~~~~~~~~~~~~~~~~~~~~~~~~~~~~~~~~~~~~~~~~~~~~~~~~~~~~~~~~~~~~~~~~~
 WANNIER NUMBER   39 ATOMIC EXTENT  0.9919
 CENTROID'S COORDINATES R0:   -0.29626E-01   -0.47545E+01    0.39965E+01
 EXPECTATION VALUE OF (R-R0)**2:  0.31434E+01
 SECOND ORDER TENSOR IN CARTESIAN AXES:
         X             Y             Z
 X  0.89154E+00  0.16697E-01  0.22287E-02
 Y  0.16697E-01  0.13552E+01  0.39554E-01
 Z  0.22287E-02  0.39554E-01  0.89663E+00
 TENSOR EIGENVALUES:
 A  0.89069E+00  B  0.13592E+01  C  0.89350E+00
 PRINCIPAL AXES:
         X             Y             Z
 A  0.95420E+00 -0.88370E-02 -0.29903E+00
 B  0.35958E-01  0.99570E+00  0.85318E-01
 C  0.29699E+00 -0.92164E-01  0.95042E+00
 NON BONDING WANNIER FUNCTION
 DISTANCE CENTROID-ATOM    2(  0  0  0) :   0.87323E+00
 ATOMIC POPULATION DATA:
  2 BA(  0  0  0)  1.0041
 A.O. POPULATIONS OF ATOM    2(  0  0  0):
   0.0370   0.2468  -0.0150   0.0001   0.1136   0.0009   0.0008   0.6153
   0.0046   0.0000   0.0000   0.0000   0.0000   0.0000   0.0000   0.0000
   0.0000  -0.0000   0.0000
~~~~~~~~~~~~~~~~~~~~~~~~~~~~~~~~~~~~~~~~~~~~~~~~~~~~~~~~~~~~~~~~~~~~~~~~~~~~~~~~
 WANNIER NUMBER   40 ATOMIC EXTENT  0.9887
 CENTROID'S COORDINATES R0:   -0.75749E+00    0.35056E+01   -0.17573E+01
 EXPECTATION VALUE OF (R-R0)**2:  0.31508E+01
 SECOND ORDER TENSOR IN CARTESIAN AXES:
         X             Y             Z
 X  0.12449E+01  0.16057E+00  0.13412E+00
 Y  0.16057E+00  0.96341E+00  0.59579E-01
 Z  0.13412E+00  0.59579E-01  0.94247E+00
 TENSOR EIGENVALUES:
 A  0.13682E+01  B  0.89004E+00  C  0.89248E+00
 PRINCIPAL AXES:
         X             Y             Z
 A  0.86140E+00  0.38962E+00  0.32587E+00
 B -0.50490E+00  0.72685E+00  0.46559E+00
 C -0.55460E-01 -0.56559E+00  0.82282E+00
 NON BONDING WANNIER FUNCTION
 DISTANCE CENTROID-ATOM    1(  0  0  0) :   0.89423E+00
 ATOMIC POPULATION DATA:
  1 BA(  0  0  0)  1.0057
 A.O. POPULATIONS OF ATOM    1(  0  0  0):
   0.0329   0.2127  -0.0011   0.0886   0.0200   0.0126   0.4705   0.1015
   0.0676   0.0000   0.0000   0.0000   0.0000   0.0000   0.0000   0.0000
   0.0000   0.0000   0.0002
~~~~~~~~~~~~~~~~~~~~~~~~~~~~~~~~~~~~~~~~~~~~~~~~~~~~~~~~~~~~~~~~~~~~~~~~~~~~~~~~
 WANNIER NUMBER   41 ATOMIC EXTENT  0.9901
 CENTROID'S COORDINATES R0:    0.66834E+00    0.35396E+01   -0.19545E+01
 EXPECTATION VALUE OF (R-R0)**2:  0.31614E+01
 SECOND ORDER TENSOR IN CARTESIAN AXES:
         X             Y             Z
 X  0.11700E+01 -0.13471E+00 -0.20120E+00
 Y -0.13471E+00  0.94886E+00  0.94238E-01
 Z -0.20120E+00  0.94238E-01  0.10426E+01
 TENSOR EIGENVALUES:
 A  0.13800E+01  B  0.88510E+00  C  0.89636E+00
 PRINCIPAL AXES:
         X             Y             Z
 A  0.75537E+00 -0.35624E+00 -0.55001E+00
 B  0.45686E+00  0.88800E+00  0.52281E-01
 C  0.46978E+00 -0.29077E+00  0.83352E+00
 NON BONDING WANNIER FUNCTION
 DISTANCE CENTROID-ATOM    1(  0  0  0) :   0.89430E+00
 ATOMIC POPULATION DATA:
  1 BA(  0  0  0)  1.0050
 A.O. POPULATIONS OF ATOM    1(  0  0  0):
   0.0326   0.2103   0.0000   0.0684   0.0163   0.0360   0.3652   0.0834
   0.1925   0.0000   0.0000   0.0000   0.0000   0.0000   0.0000   0.0000
   0.0001   0.0000   0.0002
~~~~~~~~~~~~~~~~~~~~~~~~~~~~~~~~~~~~~~~~~~~~~~~~~~~~~~~~~~~~~~~~~~~~~~~~~~~~~~~~
 WANNIER NUMBER   42 ATOMIC EXTENT  0.9913
 CENTROID'S COORDINATES R0:    0.12396E+00    0.36305E+01   -0.63325E+00
 EXPECTATION VALUE OF (R-R0)**2:  0.31749E+01
 SECOND ORDER TENSOR IN CARTESIAN AXES:
         X             Y             Z
 X  0.90079E+00 -0.20387E-01  0.66065E-01
 Y -0.20387E-01  0.92037E+00 -0.12188E+00
 Z  0.66065E-01 -0.12188E+00  0.13537E+01
 TENSOR EIGENVALUES:
 A  0.89304E+00  B  0.88654E+00  C  0.13953E+01
 PRINCIPAL AXES:
         X             Y             Z
 A  0.83319E+00 -0.49326E+00 -0.24997E+00
 B  0.53540E+00  0.83266E+00  0.14151E+00
 C  0.13834E+00 -0.25174E+00  0.95786E+00
 NON BONDING WANNIER FUNCTION
 DISTANCE CENTROID-ATOM    1(  0  0  0) :   0.88422E+00
 ATOMIC POPULATION DATA:
  1 BA(  0  0  0)  1.0044
 A.O. POPULATIONS OF ATOM    1(  0  0  0):
   0.0329   0.2132  -0.0020   0.0023   0.0088   0.1091   0.0124   0.0439
   0.5836   0.0000   0.0000   0.0000   0.0000   0.0000   0.0000   0.0000
   0.0002   0.0000   0.0000
~~~~~~~~~~~~~~~~~~~~~~~~~~~~~~~~~~~~~~~~~~~~~~~~~~~~~~~~~~~~~~~~~~~~~~~~~~~~~~~~
 WANNIER NUMBER   43 ATOMIC EXTENT  0.9936
 CENTROID'S COORDINATES R0:   -0.39897E+01    0.22888E+01    0.37335E+01
 EXPECTATION VALUE OF (R-R0)**2:  0.57358E+00
 SECOND ORDER TENSOR IN CARTESIAN AXES:
         X             Y             Z
 X  0.13578E+00  0.10411E-02  0.30596E-02
 Y  0.10411E-02  0.22084E+00  0.57440E-01
 Z  0.30596E-02  0.57440E-01  0.21696E+00
 TENSOR EIGENVALUES:
 A  0.13563E+00  B  0.27643E+00  C  0.16151E+00
 PRINCIPAL AXES:
         X             Y             Z
 A  0.99816E+00  0.25038E-01 -0.55235E-01
 B  0.20439E-01  0.71862E+00  0.69510E+00
 C  0.57097E-01 -0.69495E+00  0.71678E+00
 NON BONDING WANNIER FUNCTION
 DISTANCE CENTROID-ATOM    4(  0  0  0) :   0.49268E+00
 ATOMIC POPULATION DATA:
  4 ZN(  0  0  0)  1.0032
 A.O. POPULATIONS OF ATOM    4(  0  0  0):
  -0.0001  -0.0044   0.0716   0.0506   0.0014  -0.0005   0.0000   0.0003
   0.0004  -0.0000  -0.0056  -0.0048   0.0001   0.1526   0.1338   0.0000
   0.0379   0.0338   0.0060   0.0002   0.2525   0.0369   0.0007   0.0036
   0.0001   0.1495   0.0220   0.0004   0.0013   0.0000   0.0546   0.0082
   0.0002
~~~~~~~~~~~~~~~~~~~~~~~~~~~~~~~~~~~~~~~~~~~~~~~~~~~~~~~~~~~~~~~~~~~~~~~~~~~~~~~~
 WANNIER NUMBER   44 ATOMIC EXTENT  0.9962
 CENTROID'S COORDINATES R0:   -0.34822E+01    0.26518E+01    0.40352E+01
 EXPECTATION VALUE OF (R-R0)**2:  0.58069E+00
 SECOND ORDER TENSOR IN CARTESIAN AXES:
         X             Y             Z
 X  0.28967E+00 -0.20017E-03 -0.10774E-01
 Y -0.20017E-03  0.14442E+00 -0.12230E-01
 Z -0.10774E-01 -0.12230E-01  0.14660E+00
 TENSOR EIGENVALUES:
 A  0.29048E+00  B  0.13287E+00  C  0.15734E+00
 PRINCIPAL AXES:
         X             Y             Z
 A  0.99716E+00  0.49210E-02 -0.75090E-01
 B  0.48006E-01  0.72683E+00  0.68513E+00
 C  0.57949E-01 -0.68680E+00  0.72454E+00
 NON BONDING WANNIER FUNCTION
 DISTANCE CENTROID-ATOM    4(  0  0  0) :   0.49303E+00
 ATOMIC POPULATION DATA:
  4 ZN(  0  0  0)  1.0019
 A.O. POPULATIONS OF ATOM    4(  0  0  0):
  -0.0001  -0.0042   0.0683   0.0485   0.0016   0.0017   0.0005   0.0000
   0.0000  -0.0104   0.0000  -0.0001   0.2868   0.0000   0.0020   0.0715
   0.0000   0.0005   0.0720   0.0045   0.0052   0.2130   0.0002   0.0428
   0.0027   0.0030   0.1267   0.0002   0.0157   0.0011   0.0011   0.0467
   0.0001
~~~~~~~~~~~~~~~~~~~~~~~~~~~~~~~~~~~~~~~~~~~~~~~~~~~~~~~~~~~~~~~~~~~~~~~~~~~~~~~~
 WANNIER NUMBER   45 ATOMIC EXTENT  0.9957
 CENTROID'S COORDINATES R0:   -0.38431E+01    0.28055E+01    0.36600E+01
 EXPECTATION VALUE OF (R-R0)**2:  0.63939E+00
 SECOND ORDER TENSOR IN CARTESIAN AXES:
         X             Y             Z
 X  0.17800E+00  0.30090E-01 -0.31835E-01
 Y  0.30090E-01  0.17582E+00 -0.44058E-01
 Z -0.31835E-01 -0.44058E-01  0.28556E+00
 TENSOR EIGENVALUES:
 A  0.18048E+00  B  0.14581E+00  C  0.31310E+00
 PRINCIPAL AXES:
         X             Y             Z
 A  0.72703E+00  0.52632E+00  0.44091E+00
 B -0.62332E+00  0.77523E+00  0.10240E+00
 C -0.28791E+00 -0.34928E+00  0.89169E+00
 NON BONDING WANNIER FUNCTION
 DISTANCE CENTROID-ATOM    4(  0  0  0) :   0.45898E+00
 ATOMIC POPULATION DATA:
  4 ZN(  0  0  0)  1.0022
 A.O. POPULATIONS OF ATOM    4(  0  0  0):
  -0.0000  -0.0039   0.0611   0.0429   0.0011  -0.0009   0.0001  -0.0000
   0.0003  -0.0007  -0.0012  -0.0076   0.0199   0.0305   0.2013   0.0050
   0.0075   0.0496   0.1455   0.0800   0.0996   0.0016   0.0004   0.0871
   0.0481   0.0590   0.0009   0.0003   0.0337   0.0192   0.0217   0.0002
   0.0001
~~~~~~~~~~~~~~~~~~~~~~~~~~~~~~~~~~~~~~~~~~~~~~~~~~~~~~~~~~~~~~~~~~~~~~~~~~~~~~~~
 WANNIER NUMBER   46 ATOMIC EXTENT  1.1643
 CENTROID'S COORDINATES R0:   -0.39745E+01   -0.48248E+01   -0.37798E+01
 EXPECTATION VALUE OF (R-R0)**2:  0.17387E+01
 SECOND ORDER TENSOR IN CARTESIAN AXES:
         X             Y             Z
 X  0.46639E+00 -0.94728E-03 -0.96451E-03
 Y -0.94728E-03  0.61097E+00  0.16801E+00
 Z -0.96451E-03  0.16801E+00  0.66133E+00
 TENSOR EIGENVALUES:
 A  0.46643E+00  B  0.46621E+00  C  0.80604E+00
 PRINCIPAL AXES:
         X             Y             Z
 A  0.88735E+00 -0.34707E+00  0.30358E+00
 B  0.46108E+00  0.67354E+00 -0.57770E+00
 C -0.39717E-02  0.65260E+00  0.75769E+00
 BONDING WANNIER FUNCTION BETWEEN ATOMS:
 A:   5 F (  0  0  0) X -0.397391E+01 Y -0.524277E+01 Z -0.424032E+01 (AU)
 B:   3 ZN(  0  0  0) X -0.397391E+01 Y -0.264768E+01 Z -0.147096E+01 (AU)
 DISTANCE OF THE CENTROID FROM THE ATOMS A,B AND FROM THE A-B BOND:
  0.62193E+00  0.31734E+01  0.99577E-02
 POLARISATION FRACTION (0: COVALENT; 1: VERY IONIC)  0.67230E+00
 ATOMIC POPULATION DATA:
  3 ZN(  0  0  0)  0.0738   5 F (  0  0  0)  0.9238
 A.O. POPULATIONS OF ATOM    3(  0  0  0):
  -0.0000   0.0000   0.0009  -0.0017   0.0035   0.0299   0.0000   0.0170
   0.0207  -0.0000  -0.0000  -0.0000   0.0000   0.0004   0.0004   0.0000
   0.0000  -0.0001   0.0000   0.0000   0.0002   0.0000   0.0000  -0.0000
   0.0000  -0.0002  -0.0000   0.0000   0.0003   0.0000   0.0020   0.0005
   0.0000
 A.O. POPULATIONS OF ATOM    5(  0  0  0):
   0.0011  -0.0064   0.0544   0.0980   0.0584   0.0000   0.1016   0.1315
   0.0000   0.0982   0.1263   0.0000   0.1141   0.1464   0.0000   0.0000
   0.0001   0.0000  -0.0000
~~~~~~~~~~~~~~~~~~~~~~~~~~~~~~~~~~~~~~~~~~~~~~~~~~~~~~~~~~~~~~~~~~~~~~~~~~~~~~~~
 WANNIER NUMBER   47 ATOMIC EXTENT  0.9989
 CENTROID'S COORDINATES R0:   -0.43267E+01    0.23498E+01    0.42311E+01
 EXPECTATION VALUE OF (R-R0)**2:  0.59417E+00
 SECOND ORDER TENSOR IN CARTESIAN AXES:
         X             Y             Z
 X  0.22841E+00  0.48334E-01 -0.34017E-01
 Y  0.48334E-01  0.20952E+00 -0.30661E-01
 Z -0.34017E-01 -0.30661E-01  0.15623E+00
 TENSOR EIGENVALUES:
 A  0.28453E+00  B  0.16984E+00  C  0.13979E+00
 PRINCIPAL AXES:
         X             Y             Z
 A  0.72325E+00  0.60336E+00 -0.33594E+00
 B -0.65537E+00  0.75304E+00 -0.58467E-01
 C  0.21770E+00  0.26245E+00  0.94007E+00
 NON BONDING WANNIER FUNCTION
 DISTANCE CENTROID-ATOM    4(  0  0  0) :   0.48885E+00
 ATOMIC POPULATION DATA:
  4 ZN(  0  0  0)  1.0005
 A.O. POPULATIONS OF ATOM    4(  0  0  0):
  -0.0001  -0.0043   0.0699   0.0496   0.0013   0.0002  -0.0003   0.0001
   0.0001  -0.0053  -0.0039  -0.0012   0.1481   0.1064   0.0340   0.0369
   0.0264   0.0086   0.0159   0.0372   0.0332   0.0065   0.1983   0.0095
   0.0224   0.0197   0.0039   0.1191   0.0037   0.0089   0.0072   0.0014
   0.0469
~~~~~~~~~~~~~~~~~~~~~~~~~~~~~~~~~~~~~~~~~~~~~~~~~~~~~~~~~~~~~~~~~~~~~~~~~~~~~~~~
 WANNIER NUMBER   48 ATOMIC EXTENT  0.9988
 CENTROID'S COORDINATES R0:   -0.43643E+01    0.27599E+01    0.37952E+01
 EXPECTATION VALUE OF (R-R0)**2:  0.59530E+00
 SECOND ORDER TENSOR IN CARTESIAN AXES:
         X             Y             Z
 X  0.24421E+00 -0.27689E-01  0.51429E-01
 Y -0.27689E-01  0.14648E+00 -0.19125E-01
 Z  0.51429E-01 -0.19125E-01  0.20461E+00
 TENSOR EIGENVALUES:
 A  0.28755E+00  B  0.13845E+00  C  0.16930E+00
 PRINCIPAL AXES:
         X             Y             Z
 A  0.80182E+00 -0.23203E+00  0.55068E+00
 B  0.18959E+00  0.97270E+00  0.13381E+00
 C -0.56670E+00 -0.28889E-02  0.82392E+00
 NON BONDING WANNIER FUNCTION
 DISTANCE CENTROID-ATOM    4(  0  0  0) :   0.49075E+00
 ATOMIC POPULATION DATA:
  4 ZN(  0  0  0)  1.0006
 A.O. POPULATIONS OF ATOM    4(  0  0  0):
  -0.0001  -0.0042   0.0695   0.0493   0.0015   0.0005   0.0006   0.0001
   0.0002  -0.0063  -0.0006  -0.0032   0.1778   0.0173   0.0906   0.0445
   0.0044   0.0226   0.0035   0.2009   0.0146   0.0515   0.0218   0.0021
   0.1207   0.0087   0.0307   0.0131   0.0007   0.0482   0.0033   0.0114
   0.0052
~~~~~~~~~~~~~~~~~~~~~~~~~~~~~~~~~~~~~~~~~~~~~~~~~~~~~~~~~~~~~~~~~~~~~~~~~~~~~~~~
 WANNIER NUMBER   49 ATOMIC EXTENT  0.9984
 CENTROID'S COORDINATES R0:   -0.37701E+01   -0.25346E+01   -0.18688E+01
 EXPECTATION VALUE OF (R-R0)**2:  0.65073E+00
 SECOND ORDER TENSOR IN CARTESIAN AXES:
         X             Y             Z
 X  0.19356E+00  0.30511E-01 -0.55808E-01
 Y  0.30511E-01  0.17196E+00 -0.26983E-01
 Z -0.55808E-01 -0.26983E-01  0.28522E+00
 TENSOR EIGENVALUES:
 A  0.18054E+00  B  0.14909E+00  C  0.32110E+00
 PRINCIPAL AXES:
         X             Y             Z
 A  0.60658E+00  0.62945E+00  0.48565E+00
 B -0.66393E+00  0.73709E+00 -0.12609E+00
 C -0.43733E+00 -0.24596E+00  0.86501E+00
 NON BONDING WANNIER FUNCTION
 DISTANCE CENTROID-ATOM    3(  0  0  0) :   0.46105E+00
 ATOMIC POPULATION DATA:
  3 ZN(  0  0  0)  1.0008
 A.O. POPULATIONS OF ATOM    3(  0  0  0):
  -0.0000  -0.0038   0.0599   0.0422   0.0011  -0.0005   0.0001   0.0001
   0.0005  -0.0017  -0.0005  -0.0069   0.0479   0.0148   0.1840   0.0120
   0.0037   0.0461   0.1113   0.1538   0.0586   0.0037   0.0011   0.0667
   0.0924   0.0347   0.0023   0.0007   0.0261   0.0369   0.0125   0.0010
   0.0003
~~~~~~~~~~~~~~~~~~~~~~~~~~~~~~~~~~~~~~~~~~~~~~~~~~~~~~~~~~~~~~~~~~~~~~~~~~~~~~~~
 WANNIER NUMBER   50 ATOMIC EXTENT  1.1644
 CENTROID'S COORDINATES R0:   -0.39707E+01   -0.48223E+01    0.83806E+00
 EXPECTATION VALUE OF (R-R0)**2:  0.17345E+01
 SECOND ORDER TENSOR IN CARTESIAN AXES:
         X             Y             Z
 X  0.46580E+00  0.16382E-02 -0.30352E-02
 Y  0.16382E-02  0.61238E+00 -0.16698E+00
 Z -0.30352E-02 -0.16698E+00  0.65631E+00
 TENSOR EIGENVALUES:
 A  0.46508E+00  B  0.46662E+00  C  0.80280E+00
 PRINCIPAL AXES:
         X             Y             Z
 A  0.74283E+00  0.49841E+00  0.44697E+00
 B -0.66940E+00  0.56291E+00  0.48480E+00
 C -0.99761E-02 -0.65933E+00  0.75178E+00
 BONDING WANNIER FUNCTION BETWEEN ATOMS:
 A:   7 F (  0  0  0) X -0.397391E+01 Y -0.524277E+01 Z  0.129851E+01 (AU)
 B:   3 ZN(  0  0  0) X -0.397391E+01 Y -0.264768E+01 Z -0.147096E+01 (AU)
 DISTANCE OF THE CENTROID FROM THE ATOMS A,B AND FROM THE A-B BOND:
  0.62355E+00  0.31718E+01  0.86246E-02
 POLARISATION FRACTION (0: COVALENT; 1: VERY IONIC)  0.67144E+00
 ATOMIC POPULATION DATA:
  3 ZN(  0  0  0)  0.0738   7 F (  0  0  0)  0.9238
 A.O. POPULATIONS OF ATOM    3(  0  0  0):
  -0.0000   0.0000   0.0009  -0.0017   0.0035   0.0299   0.0000   0.0169
   0.0207   0.0000  -0.0000  -0.0000  -0.0000   0.0004   0.0005   0.0000
   0.0000  -0.0001   0.0000   0.0000   0.0002   0.0000   0.0000  -0.0000
   0.0000  -0.0002  -0.0000   0.0000   0.0003   0.0000   0.0020   0.0005
   0.0000
 A.O. POPULATIONS OF ATOM    7(  0  0  0):
   0.0011  -0.0064   0.0546   0.0984   0.0588   0.0000   0.1024   0.1303
   0.0000   0.0988   0.1254   0.0000   0.1149   0.1453   0.0000   0.0000
   0.0001   0.0000   0.0000
~~~~~~~~~~~~~~~~~~~~~~~~~~~~~~~~~~~~~~~~~~~~~~~~~~~~~~~~~~~~~~~~~~~~~~~~~~~~~~~~
 WANNIER NUMBER   51 ATOMIC EXTENT  0.9996
 CENTROID'S COORDINATES R0:   -0.43051E+01   -0.25940E+01   -0.18273E+01
 EXPECTATION VALUE OF (R-R0)**2:  0.59982E+00
 SECOND ORDER TENSOR IN CARTESIAN AXES:
         X             Y             Z
 X  0.22338E+00 -0.12772E-01  0.57168E-01
 Y -0.12772E-01  0.14333E+00 -0.10338E-01
 Z  0.57168E-01 -0.10338E-01  0.23310E+00
 TENSOR EIGENVALUES:
 A  0.17106E+00  B  0.14131E+00  C  0.28745E+00
 PRINCIPAL AXES:
         X             Y             Z
 A  0.72636E+00 -0.80073E-01 -0.68263E+00
 B  0.13500E+00  0.99046E+00  0.27470E-01
 C  0.67392E+00 -0.11211E+00  0.73025E+00
 NON BONDING WANNIER FUNCTION
 DISTANCE CENTROID-ATOM    3(  0  0  0) :   0.48946E+00
 ATOMIC POPULATION DATA:
  3 ZN(  0  0  0)  1.0002
 A.O. POPULATIONS OF ATOM    3(  0  0  0):
  -0.0001  -0.0043   0.0702   0.0496   0.0014   0.0000   0.0002  -0.0000
   0.0004  -0.0046  -0.0002  -0.0055   0.1288   0.0047   0.1524   0.0322
   0.0011   0.0381   0.0165   0.2419   0.0068   0.0240   0.0021   0.0099
   0.1453   0.0040   0.0144   0.0012   0.0040   0.0580   0.0014   0.0055
   0.0005
~~~~~~~~~~~~~~~~~~~~~~~~~~~~~~~~~~~~~~~~~~~~~~~~~~~~~~~~~~~~~~~~~~~~~~~~~~~~~~~~
 WANNIER NUMBER   52 ATOMIC EXTENT  0.9993
 CENTROID'S COORDINATES R0:   -0.43447E+01   -0.29438E+01   -0.13427E+01
 EXPECTATION VALUE OF (R-R0)**2:  0.59567E+00
 SECOND ORDER TENSOR IN CARTESIAN AXES:
         X             Y             Z
 X  0.23788E+00  0.52551E-01 -0.25309E-01
 Y  0.52551E-01  0.20837E+00 -0.27984E-01
 Z -0.25309E-01 -0.27984E-01  0.14942E+00
 TENSOR EIGENVALUES:
 A  0.28768E+00  B  0.17002E+00  C  0.13797E+00
 PRINCIPAL AXES:
         X             Y             Z
 A  0.76030E+00  0.59541E+00 -0.25968E+00
 B -0.64593E+00  0.73529E+00 -0.20525E+00
 C  0.68736E-01  0.32378E+00  0.94363E+00
 NON BONDING WANNIER FUNCTION
 DISTANCE CENTROID-ATOM    3(  0  0  0) :   0.49155E+00
 ATOMIC POPULATION DATA:
  3 ZN(  0  0  0)  1.0003
 A.O. POPULATIONS OF ATOM    3(  0  0  0):
  -0.0001  -0.0043   0.0694   0.0491   0.0015   0.0006   0.0010   0.0004
   0.0000  -0.0057  -0.0037  -0.0008   0.1590   0.1020   0.0227   0.0399
   0.0256   0.0056   0.0247   0.0324   0.0139   0.0099   0.2124   0.0147
   0.0195   0.0082   0.0058   0.1277   0.0056   0.0078   0.0030   0.0020
   0.0505
~~~~~~~~~~~~~~~~~~~~~~~~~~~~~~~~~~~~~~~~~~~~~~~~~~~~~~~~~~~~~~~~~~~~~~~~~~~~~~~~
 WANNIER NUMBER   53 ATOMIC EXTENT  1.1577
 CENTROID'S COORDINATES R0:   -0.47818E-01    0.13347E+02   -0.38592E+01
 EXPECTATION VALUE OF (R-R0)**2:  0.17856E+01
 SECOND ORDER TENSOR IN CARTESIAN AXES:
         X             Y             Z
 X  0.46002E+00  0.20184E-01 -0.17587E-01
 Y  0.20184E-01  0.67276E+00 -0.20612E+00
 Z -0.17587E-01 -0.20612E+00  0.65279E+00
 TENSOR EIGENVALUES:
 A  0.45886E+00  B  0.87088E+00  C  0.45584E+00
 PRINCIPAL AXES:
         X             Y             Z
 A  0.89741E+00  0.25929E+00  0.35696E+00
 B  0.64958E-01  0.72261E+00 -0.68820E+00
 C -0.43639E+00  0.64078E+00  0.63164E+00
 BONDING WANNIER FUNCTION BETWEEN ATOMS:
 A:  11 F (  0  0  0) X  0.000000E+00 Y  0.137685E+02 Z -0.424176E+01 (AU)
 B:   3 ZN(  1  0  0) X  0.888178E-15 Y  0.111208E+02 Z -0.147096E+01 (AU)
 DISTANCE OF THE CENTROID FROM THE ATOMS A,B AND FROM THE A-B BOND:
  0.57124E+00  0.32652E+01  0.62656E-01
 POLARISATION FRACTION (0: COVALENT; 1: VERY IONIC)  0.70369E+00
 ATOMIC POPULATION DATA:
 11 F (  0  0  0)  0.9275   3 ZN(  1  0  0)  0.0584   4 ZN(  1  0 -1)  0.0145
 A.O. POPULATIONS OF ATOM   11(  0  0  0):
   0.0017  -0.0080   0.0711   0.1199   0.0806   0.0018   0.1161   0.0930
   0.0017   0.1139   0.0913   0.0019   0.1339   0.1084   0.0000   0.0000
   0.0000   0.0000   0.0000
 A.O. POPULATIONS OF ATOM    3(  1  0  0):
  -0.0000   0.0001   0.0002  -0.0017   0.0029   0.0240   0.0000   0.0133
   0.0172   0.0000   0.0000   0.0000   0.0000   0.0001   0.0002  -0.0000
   0.0001   0.0001   0.0001   0.0000   0.0008   0.0001   0.0000  -0.0000
  -0.0000  -0.0001  -0.0000  -0.0000   0.0001   0.0000   0.0008   0.0002
   0.0000
 A.O. POPULATIONS OF ATOM    4(  1  0 -1):
  -0.0000   0.0000   0.0001  -0.0010   0.0016   0.0084   0.0000   0.0019
   0.0029  -0.0000   0.0000   0.0000   0.0000   0.0000   0.0001  -0.0000
   0.0001   0.0000   0.0000   0.0000   0.0001   0.0000   0.0000  -0.0000
  -0.0000  -0.0001  -0.0000  -0.0000   0.0000   0.0000   0.0002   0.0000
   0.0000
~~~~~~~~~~~~~~~~~~~~~~~~~~~~~~~~~~~~~~~~~~~~~~~~~~~~~~~~~~~~~~~~~~~~~~~~~~~~~~~~
 WANNIER NUMBER   54 ATOMIC EXTENT  1.0488
 CENTROID'S COORDINATES R0:   -0.97594E-01    0.24553E+01    0.45735E+01
 EXPECTATION VALUE OF (R-R0)**2:  0.16509E+01
 SECOND ORDER TENSOR IN CARTESIAN AXES:
         X             Y             Z
[...]
 TENSOR EIGENVALUES:
 A  0.80330E+00  B  0.43079E+00  C  0.47132E+00
 PRINCIPAL AXES:
         X             Y             Z
 A  0.79388E+00 -0.28440E+00  0.53746E+00
 B  0.19991E+00  0.95682E+00  0.21102E+00
 C -0.57427E+00 -0.60085E-01  0.81646E+00
 BONDING WANNIER FUNCTION BETWEEN ATOMS:
 A:   9 F (  0  0  0) X  0.499795E-17 Y  0.228557E+01 Z  0.407064E+01 (AU)
 B:   4 ZN(  0  0  0) X -0.397391E+01 Y  0.264768E+01 Z  0.407064E+01 (AU)
 DISTANCE OF THE CENTROID FROM THE ATOMS A,B AND FROM THE A-B BOND:
  0.55862E+00  0.35828E+01  0.36154E+00
 POLARISATION FRACTION (0: COVALENT; 1: VERY IONIC)  0.78656E+00
 ATOMIC POPULATION DATA:
  4 ZN(  0  0  0)  0.0389   9 F (  0  0  0)  0.9507
 A.O. POPULATIONS OF ATOM    4(  0  0  0):
  -0.0000   0.0000   0.0003  -0.0006   0.0007   0.0143   0.0212  -0.0000
   0.0011  -0.0000  -0.0000  -0.0000   0.0004  -0.0000   0.0000  -0.0000
   0.0000  -0.0000   0.0001   0.0000   0.0000   0.0002   0.0000  -0.0000
  -0.0000  -0.0000  -0.0001   0.0000   0.0002   0.0002  -0.0000   0.0009
  -0.0000
 A.O. POPULATIONS OF ATOM    9(  0  0  0):
   0.0014  -0.0077   0.0666   0.1115   0.0755   0.1136   0.0287   0.0865
   0.1112   0.0278   0.0821   0.1308   0.0311   0.0916   0.0000   0.0000
   0.0000   0.0000   0.0000
~~~~~~~~~~~~~~~~~~~~~~~~~~~~~~~~~~~~~~~~~~~~~~~~~~~~~~~~~~~~~~~~~~~~~~~~~~~~~~~~
 WANNIER NUMBER   64 ATOMIC EXTENT  1.0507
 CENTROID'S COORDINATES R0:   -0.28428E+00    0.14194E+02   -0.40934E+01
 EXPECTATION VALUE OF (R-R0)**2:  0.16214E+01
 SECOND ORDER TENSOR IN CARTESIAN AXES:
         X             Y             Z
 X  0.51611E+00 -0.15619E+00 -0.56054E-01
 Y -0.15619E+00  0.65214E+00  0.60975E-01
 Z -0.56054E-01  0.60975E-01  0.45320E+00
 TENSOR EIGENVALUES:
 A  0.40704E+00  B  0.77525E+00  C  0.43916E+00
 PRINCIPAL AXES:
         X             Y             Z
 A  0.80139E+00  0.40006E+00  0.44466E+00
 B -0.53883E+00  0.80560E+00  0.24631E+00
 C -0.25968E+00 -0.43699E+00  0.86117E+00
 BONDING WANNIER FUNCTION BETWEEN ATOMS:
 A:  11 F (  0  0  0) X  0.000000E+00 Y  0.137685E+02 Z -0.424176E+01 (AU)
 B:   4 ZN(  1  0 -1) X  0.444089E-15 Y  0.164162E+02 Z -0.701257E+01 (AU)
 DISTANCE OF THE CENTROID FROM THE ATOMS A,B AND FROM THE A-B BOND:
  0.53268E+00  0.36798E+01  0.49894E+00
 POLARISATION FRACTION (0: COVALENT; 1: VERY IONIC)  0.90263E+00
 ATOMIC POPULATION DATA:
 11 F (  0  0  0)  0.9754   4 ZN(  1  0 -1)  0.0161
 A.O. POPULATIONS OF ATOM   11(  0  0  0):
   0.0011  -0.0076   0.0647   0.1084   0.0728   0.0699   0.1496   0.0220
   0.0683   0.1436   0.0212   0.0763   0.1624   0.0227   0.0000   0.0000
   0.0000   0.0000   0.0000
 A.O. POPULATIONS OF ATOM    4(  1  0 -1):
  -0.0000   0.0000   0.0000  -0.0003   0.0008   0.0041   0.0010   0.0003
   0.0092   0.0000   0.0000   0.0000   0.0000   0.0000   0.0001  -0.0000
   0.0000  -0.0000   0.0001   0.0000   0.0002   0.0000   0.0000  -0.0000
  -0.0000  -0.0000  -0.0000  -0.0000   0.0004   0.0001   0.0002  -0.0000
   0.0001
~~~~~~~~~~~~~~~~~~~~~~~~~~~~~~~~~~~~~~~~~~~~~~~~~~~~~~~~~~~~~~~~~~~~~~~~~~~~~~~~
 WANNIER NUMBER   65 ATOMIC EXTENT  1.0749
 CENTROID'S COORDINATES R0:   -0.28606E+00   -0.24693E+01   -0.10416E+01
 EXPECTATION VALUE OF (R-R0)**2:  0.16658E+01
 SECOND ORDER TENSOR IN CARTESIAN AXES:
         X             Y             Z
 X  0.55806E+00  0.57294E-01 -0.13620E+00
 Y  0.57294E-01  0.44684E+00 -0.76892E-01
 Z -0.13620E+00 -0.76892E-01  0.66086E+00
 TENSOR EIGENVALUES:
 A  0.46412E+00  B  0.41923E+00  C  0.78240E+00
 PRINCIPAL AXES:
         X             Y             Z
 A  0.80735E+00  0.69308E-01  0.58599E+00
 B -0.21563E+00  0.95905E+00  0.18365E+00
 C -0.54927E+00 -0.27463E+00  0.78923E+00
 BONDING WANNIER FUNCTION BETWEEN ATOMS:
 A:  10 F (  0  0  0) X -0.499795E-17 Y -0.228557E+01 Z -0.147096E+01 (AU)
 B:   3 ZN(  0  0  0) X -0.397391E+01 Y -0.264768E+01 Z -0.147096E+01 (AU)
 DISTANCE OF THE CENTROID FROM THE ATOMS A,B AND FROM THE A-B BOND:
  0.54768E+00  0.37170E+01  0.45719E+00
 POLARISATION FRACTION (0: COVALENT; 1: VERY IONIC)  0.84886E+00
 ATOMIC POPULATION DATA:
  3 ZN(  0  0  0)  0.0258  10 F (  0  0  0)  0.9642
 A.O. POPULATIONS OF ATOM    3(  0  0  0):
  -0.0000   0.0000   0.0002  -0.0003   0.0004   0.0086   0.0135   0.0000
   0.0020  -0.0000  -0.0000  -0.0000   0.0002   0.0000   0.0000  -0.0000
   0.0000  -0.0000   0.0000   0.0000   0.0000   0.0001   0.0000  -0.0000
  -0.0000  -0.0000  -0.0001   0.0000   0.0002   0.0003  -0.0000   0.0006
  -0.0000
 A.O. POPULATIONS OF ATOM   10(  0  0  0):
   0.0012  -0.0076   0.0649   0.1084   0.0734   0.0570   0.0261   0.1548
   0.0558   0.0253   0.1470   0.0656   0.0283   0.1639   0.0000   0.0000
   0.0000   0.0000   0.0000
~~~~~~~~~~~~~~~~~~~~~~~~~~~~~~~~~~~~~~~~~~~~~~~~~~~~~~~~~~~~~~~~~~~~~~~~~~~~~~~~
 WANNIER NUMBER   66 ATOMIC EXTENT  1.0350
 CENTROID'S COORDINATES R0:   -0.44315E+01   -0.51401E+01    0.16040E+01
 EXPECTATION VALUE OF (R-R0)**2:  0.16815E+01
 SECOND ORDER TENSOR IN CARTESIAN AXES:
         X             Y             Z
 X  0.69210E+00 -0.59843E-01 -0.19638E+00
 Y -0.59843E-01  0.43096E+00  0.48346E-01
 Z -0.19638E+00  0.48346E-01  0.55845E+00
 TENSOR EIGENVALUES:
 A  0.84690E+00  B  0.42173E+00  C  0.41288E+00
 PRINCIPAL AXES:
         X             Y             Z
 A  0.79844E+00 -0.18160E+00 -0.57403E+00
 B  0.53467E+00  0.65220E+00  0.53737E+00
 C  0.27680E+00 -0.73598E+00  0.61784E+00
 NON BONDING WANNIER FUNCTION
 DISTANCE CENTROID-ATOM    7(  0  0  0) :   0.55965E+00
 ATOMIC POPULATION DATA:
  7 F (  0  0  0)  0.9829   2 BA( -1  1  0)  0.0123
 A.O. POPULATIONS OF ATOM    7(  0  0  0):
   0.0013  -0.0081   0.0705   0.1075   0.0882   0.1596   0.0065   0.0729
   0.1534   0.0055   0.0692   0.1724   0.0061   0.0779   0.0000   0.0000
   0.0000  -0.0000   0.0000
 A.O. POPULATIONS OF ATOM    2( -1  1  0):
  -0.0000  -0.0015   0.0058  -0.0009  -0.0001  -0.0004  -0.0004  -0.0001
  -0.0002   0.0000   0.0004   0.0001   0.0002   0.0001   0.0000   0.0052
   0.0007   0.0020   0.0015
~~~~~~~~~~~~~~~~~~~~~~~~~~~~~~~~~~~~~~~~~~~~~~~~~~~~~~~~~~~~~~~~~~~~~~~~~~~~~~~~
 WANNIER NUMBER   67 ATOMIC EXTENT  1.0252
 CENTROID'S COORDINATES R0:    0.56973E-02   -0.17470E+01   -0.14673E+01
 EXPECTATION VALUE OF (R-R0)**2:  0.15267E+01
 SECOND ORDER TENSOR IN CARTESIAN AXES:
         X             Y             Z
 X  0.42190E+00  0.36702E-02  0.28970E-04
 Y  0.36702E-02  0.70302E+00  0.24692E-02
 Z  0.28970E-04  0.24692E-02  0.40179E+00
 TENSOR EIGENVALUES:
 A  0.42185E+00  B  0.70308E+00  C  0.40177E+00
 PRINCIPAL AXES:
         X             Y             Z
 A  0.99991E+00 -0.13051E-01 -0.16239E-03
 B  0.13052E-01  0.99988E+00  0.81956E-02
 C  0.55410E-04 -0.81970E-02  0.99997E+00
 NON BONDING WANNIER FUNCTION
 DISTANCE CENTROID-ATOM   10(  0  0  0) :   0.53866E+00
 ATOMIC POPULATION DATA:
 10 F (  0  0  0)  0.9876
 A.O. POPULATIONS OF ATOM   10(  0  0  0):
   0.0011  -0.0080   0.0681   0.1086   0.0798   0.0000   0.2423   0.0000
   0.0000   0.2349   0.0000   0.0000   0.2607   0.0000   0.0000   0.0000
   0.0000   0.0000   0.0000
~~~~~~~~~~~~~~~~~~~~~~~~~~~~~~~~~~~~~~~~~~~~~~~~~~~~~~~~~~~~~~~~~~~~~~~~~~~~~~~~
 WANNIER NUMBER   68 ATOMIC EXTENT  1.0252
 CENTROID'S COORDINATES R0:    0.63968E-03    0.17471E+01    0.40601E+01
 EXPECTATION VALUE OF (R-R0)**2:  0.15266E+01
 SECOND ORDER TENSOR IN CARTESIAN AXES:
         X             Y             Z
 X  0.42167E+00 -0.29361E-03  0.19108E-03
 Y -0.29361E-03  0.70300E+00  0.62585E-02
 Z  0.19108E-03  0.62585E-02  0.40191E+00
 TENSOR EIGENVALUES:
 A  0.42167E+00  B  0.70314E+00  C  0.40178E+00
 PRINCIPAL AXES:
         X             Y             Z
 A  0.99995E+00  0.82268E-03  0.99303E-02
 B -0.10288E-02  0.99978E+00  0.20772E-01
 C -0.99111E-02 -0.20781E-01  0.99973E+00
 NON BONDING WANNIER FUNCTION
 DISTANCE CENTROID-ATOM    9(  0  0  0) :   0.53858E+00
 ATOMIC POPULATION DATA:
  9 F (  0  0  0)  0.9876
 A.O. POPULATIONS OF ATOM    9(  0  0  0):
   0.0011  -0.0080   0.0681   0.1086   0.0798   0.0000   0.2423   0.0001
   0.0000   0.2348   0.0001   0.0000   0.2606   0.0001   0.0000   0.0000
   0.0000   0.0000   0.0000
~~~~~~~~~~~~~~~~~~~~~~~~~~~~~~~~~~~~~~~~~~~~~~~~~~~~~~~~~~~~~~~~~~~~~~~~~~~~~~~~
 WANNIER NUMBER   69 ATOMIC EXTENT  1.0315
 CENTROID'S COORDINATES R0:   -0.39746E+01    0.57368E+01   -0.44616E+01
 EXPECTATION VALUE OF (R-R0)**2:  0.16454E+01
 SECOND ORDER TENSOR IN CARTESIAN AXES:
         X             Y             Z
 X  0.43279E+00  0.27390E-03  0.33212E-04
 Y  0.27390E-03  0.73376E+00 -0.14323E+00
 Z  0.33212E-04 -0.14323E+00  0.47887E+00
 TENSOR EIGENVALUES:
 A  0.43279E+00  B  0.79803E+00  C  0.41459E+00
 PRINCIPAL AXES:
         X             Y             Z
 A  0.99997E+00  0.26146E-02  0.74064E-02
 B  0.64696E-03  0.91234E+00 -0.40942E+00
 C -0.78276E-02  0.40941E+00  0.91231E+00
 NON BONDING WANNIER FUNCTION
 DISTANCE CENTROID-ATOM    8(  0  0  0) :   0.54022E+00
 ATOMIC POPULATION DATA:
  8 F (  0  0  0)  0.9846
 A.O. POPULATIONS OF ATOM    8(  0  0  0):
   0.0014  -0.0086   0.0739   0.1210   0.0821   0.0000   0.2021   0.0359
   0.0000   0.1916   0.0336   0.0000   0.2138   0.0376   0.0000   0.0000
   0.0000   0.0000  -0.0000
~~~~~~~~~~~~~~~~~~~~~~~~~~~~~~~~~~~~~~~~~~~~~~~~~~~~~~~~~~~~~~~~~~~~~~~~~~~~~~~~
 WANNIER NUMBER   70 ATOMIC EXTENT  1.0883
 CENTROID'S COORDINATES R0:   -0.29450E+00    0.14223E+02    0.13759E+01
 EXPECTATION VALUE OF (R-R0)**2:  0.16788E+01
 SECOND ORDER TENSOR IN CARTESIAN AXES:
         X             Y             Z
 X  0.52227E+00 -0.15708E+00 -0.20184E-01
 Y -0.15708E+00  0.68965E+00  0.62065E-01
 Z -0.20184E-01  0.62065E-01  0.46685E+00
 TENSOR EIGENVALUES:
 A  0.42167E+00  B  0.79625E+00  C  0.46085E+00
 PRINCIPAL AXES:
         X             Y             Z
 A  0.75001E+00  0.53099E+00 -0.39439E+00
 B -0.49883E+00  0.84564E+00  0.18990E+00
 C  0.43434E+00  0.54305E-01  0.89911E+00
 BONDING WANNIER FUNCTION BETWEEN ATOMS:
 A:  12 F (  0  0  0) X  0.000000E+00 Y  0.137685E+02 Z  0.129984E+01 (AU)
 B:   4 ZN(  1  0  0) X  0.444089E-15 Y  0.164162E+02 Z  0.407064E+01 (AU)
 DISTANCE OF THE CENTROID FROM THE ATOMS A,B AND FROM THE A-B BOND:
  0.54713E+00  0.34867E+01  0.40378E+00
 POLARISATION FRACTION (0: COVALENT; 1: VERY IONIC)  0.80733E+00
 ATOMIC POPULATION DATA:
 12 F (  0  0  0)  0.9580   4 ZN(  1  0  0)  0.0333
 A.O. POPULATIONS OF ATOM   12(  0  0  0):
   0.0014  -0.0078   0.0671   0.1127   0.0758   0.0721   0.1559   0.0020
   0.0705   0.1508   0.0023   0.0786   0.1733   0.0033   0.0000   0.0000
   0.0000   0.0000   0.0000
 A.O. POPULATIONS OF ATOM    4(  1  0  0):
  -0.0000   0.0000   0.0001  -0.0009   0.0017   0.0118   0.0010   0.0041
   0.0137   0.0000   0.0000   0.0000   0.0000   0.0000   0.0001  -0.0000
   0.0001   0.0000   0.0001   0.0000   0.0005   0.0000   0.0000  -0.0000
  -0.0000  -0.0001  -0.0000  -0.0000   0.0003   0.0001   0.0004  -0.0000
   0.0001
~~~~~~~~~~~~~~~~~~~~~~~~~~~~~~~~~~~~~~~~~~~~~~~~~~~~~~~~~~~~~~~~~~~~~~~~~~~~~~~~
 WANNIER NUMBER   71 ATOMIC EXTENT  1.0391
 CENTROID'S COORDINATES R0:   -0.16741E+00    0.13398E+02    0.16361E+01
 EXPECTATION VALUE OF (R-R0)**2:  0.16093E+01
 SECOND ORDER TENSOR IN CARTESIAN AXES:
         X             Y             Z
 X  0.46380E+00  0.84270E-01 -0.72662E-01
 Y  0.84270E-01  0.59396E+00 -0.13681E+00
 Z -0.72662E-01 -0.13681E+00  0.55152E+00
 TENSOR EIGENVALUES:
 A  0.42111E+00  B  0.75387E+00  C  0.43430E+00
 PRINCIPAL AXES:
         X             Y             Z
 A  0.93339E+00 -0.25595E+00  0.25155E+00
 B  0.35815E+00  0.70874E+00 -0.60779E+00
 C -0.22717E-01  0.65740E+00  0.75320E+00
 NON BONDING WANNIER FUNCTION
 DISTANCE CENTROID-ATOM   12(  0  0  0) :   0.52764E+00
 ATOMIC POPULATION DATA:
 12 F (  0  0  0)  0.9809
 A.O. POPULATIONS OF ATOM   12(  0  0  0):
   0.0011  -0.0076   0.0639   0.1068   0.0717   0.0246   0.1217   0.0994
   0.0240   0.1159   0.0961   0.0268   0.1291   0.1073   0.0000   0.0000
   0.0000   0.0000   0.0000
~~~~~~~~~~~~~~~~~~~~~~~~~~~~~~~~~~~~~~~~~~~~~~~~~~~~~~~~~~~~~~~~~~~~~~~~~~~~~~~~
 WANNIER NUMBER   72 ATOMIC EXTENT  1.1624
 CENTROID'S COORDINATES R0:   -0.39722E+01    0.48205E+01   -0.47048E+01
 EXPECTATION VALUE OF (R-R0)**2:  0.17525E+01
 SECOND ORDER TENSOR IN CARTESIAN AXES:
         X             Y             Z
 X  0.46881E+00 -0.18254E-02 -0.30420E-02
 Y -0.18254E-02  0.61914E+00  0.17169E+00
 Z -0.30420E-02  0.17169E+00  0.66457E+00
 TENSOR EIGENVALUES:
 A  0.46936E+00  B  0.46809E+00  C  0.81508E+00
 PRINCIPAL AXES:
         X             Y             Z
 A  0.73375E+00  0.51581E+00 -0.44221E+00
 B -0.67934E+00  0.54734E+00 -0.48878E+00
 C -0.10081E-01  0.65905E+00  0.75203E+00
 BONDING WANNIER FUNCTION BETWEEN ATOMS:
 A:   8 F (  0  0  0) X -0.397391E+01 Y  0.524277E+01 Z -0.424309E+01 (AU)
 B:   4 ZN(  0  0 -1) X -0.397391E+01 Y  0.264768E+01 Z -0.701257E+01 (AU)
 DISTANCE OF THE CENTROID FROM THE ATOMS A,B AND FROM THE A-B BOND:
  0.62571E+00  0.31697E+01  0.77795E-02
 POLARISATION FRACTION (0: COVALENT; 1: VERY IONIC)  0.67030E+00
 ATOMIC POPULATION DATA:
  8 F (  0  0  0)  0.9246   4 ZN(  0  0 -1)  0.0729
 A.O. POPULATIONS OF ATOM    8(  0  0  0):
   0.0011  -0.0064   0.0549   0.0988   0.0590   0.0000   0.1027   0.1302
   0.0000   0.0990   0.1252   0.0000   0.1150   0.1451   0.0000   0.0000
   0.0001   0.0000   0.0000
 A.O. POPULATIONS OF ATOM    4(  0  0 -1):
  -0.0000   0.0001   0.0002  -0.0022   0.0037   0.0305   0.0000   0.0170
   0.0208  -0.0000   0.0000   0.0000   0.0000   0.0002   0.0002   0.0000
   0.0001   0.0000   0.0001   0.0000   0.0009   0.0001   0.0000  -0.0000
   0.0000  -0.0001  -0.0000  -0.0000   0.0002   0.0000   0.0009   0.0003
   0.0000
~~~~~~~~~~~~~~~~~~~~~~~~~~~~~~~~~~~~~~~~~~~~~~~~~~~~~~~~~~~~~~~~~~~~~~~~~~~~~~~~
 WANNIER NUMBER   73 ATOMIC EXTENT  1.1642
 CENTROID'S COORDINATES R0:   -0.39716E+01    0.48210E+01    0.17605E+01
 EXPECTATION VALUE OF (R-R0)**2:  0.17360E+01
 SECOND ORDER TENSOR IN CARTESIAN AXES:
         X             Y             Z
 X  0.46553E+00 -0.13338E-02  0.25237E-02
 Y -0.13338E-02  0.61356E+00 -0.16699E+00
 Z  0.25237E-02 -0.16699E+00  0.65693E+00
 TENSOR EIGENVALUES:
 A  0.46524E+00  B  0.46712E+00  C  0.80367E+00
 PRINCIPAL AXES:
         X             Y             Z
 A  0.92474E+00 -0.28087E+00 -0.25685E+00
 B  0.38052E+00  0.69681E+00  0.60800E+00
 C  0.82103E-02 -0.65997E+00  0.75124E+00
 BONDING WANNIER FUNCTION BETWEEN ATOMS:
 A:   6 F (  0  0  0) X -0.397391E+01 Y  0.524277E+01 Z  0.130128E+01 (AU)
 B:   4 ZN(  0  0  0) X -0.397391E+01 Y  0.264768E+01 Z  0.407064E+01 (AU)
 DISTANCE OF THE CENTROID FROM THE ATOMS A,B AND FROM THE A-B BOND:
  0.62353E+00  0.31717E+01  0.65889E-02
 POLARISATION FRACTION (0: COVALENT; 1: VERY IONIC)  0.67143E+00
 ATOMIC POPULATION DATA:
  4 ZN(  0  0  0)  0.0737   6 F (  0  0  0)  0.9239
 A.O. POPULATIONS OF ATOM    4(  0  0  0):
  -0.0000   0.0000   0.0009  -0.0017   0.0035   0.0299   0.0000   0.0169
   0.0208   0.0000  -0.0000  -0.0000  -0.0000   0.0004   0.0005   0.0000
   0.0000  -0.0001   0.0000   0.0000   0.0003   0.0000   0.0000  -0.0000
   0.0000  -0.0002  -0.0000   0.0000   0.0003   0.0000   0.0019   0.0005
   0.0000
 A.O. POPULATIONS OF ATOM    6(  0  0  0):
   0.0011  -0.0064   0.0546   0.0984   0.0588   0.0000   0.1032   0.1295
   0.0000   0.0996   0.1247   0.0000   0.1157   0.1445   0.0000   0.0000
   0.0001   0.0000   0.0000
~~~~~~~~~~~~~~~~~~~~~~~~~~~~~~~~~~~~~~~~~~~~~~~~~~~~~~~~~~~~~~~~~~~~~~~~~~~~~~~~
 WANNIER NUMBER   74 ATOMIC EXTENT  1.0316
 CENTROID'S COORDINATES R0:   -0.39759E+01    0.57365E+01    0.15211E+01
 EXPECTATION VALUE OF (R-R0)**2:  0.16447E+01
 SECOND ORDER TENSOR IN CARTESIAN AXES:
         X             Y             Z
 X  0.43275E+00 -0.48987E-03 -0.18009E-03
 Y -0.48987E-03  0.73256E+00  0.14395E+00
 Z -0.18009E-03  0.14395E+00  0.47936E+00
 TENSOR EIGENVALUES:
 A  0.43275E+00  B  0.79766E+00  C  0.41426E+00
 PRINCIPAL AXES:
         X             Y             Z
 A  0.10000E+01  0.45796E-03  0.24493E-02
 B -0.14265E-02  0.91116E+00  0.41206E+00
 C -0.20430E-02 -0.41206E+00  0.91115E+00
 NON BONDING WANNIER FUNCTION
 DISTANCE CENTROID-ATOM    6(  0  0  0) :   0.54049E+00
 ATOMIC POPULATION DATA:
  6 F (  0  0  0)  0.9845
 A.O. POPULATIONS OF ATOM    6(  0  0  0):
   0.0014  -0.0086   0.0739   0.1211   0.0822   0.0000   0.2015   0.0365
   0.0000   0.1912   0.0340   0.0000   0.2132   0.0381   0.0000   0.0000
   0.0000   0.0000   0.0000
~~~~~~~~~~~~~~~~~~~~~~~~~~~~~~~~~~~~~~~~~~~~~~~~~~~~~~~~~~~~~~~~~~~~~~~~~~~~~~~~
 WANNIER NUMBER   75 ATOMIC EXTENT  0.9947
 CENTROID'S COORDINATES R0:   -0.38217E+01   -0.29999E+01   -0.12161E+01
 EXPECTATION VALUE OF (R-R0)**2:  0.63334E+00
 SECOND ORDER TENSOR IN CARTESIAN AXES:
         X             Y             Z
 X  0.17495E+00 -0.29639E-01  0.40187E-01
 Y -0.29639E-01  0.25565E+00 -0.63048E-01
 Z  0.40187E-01 -0.63048E-01  0.20274E+00
 TENSOR EIGENVALUES:
 A  0.17600E+00  B  0.31367E+00  C  0.14367E+00
 PRINCIPAL AXES:
         X             Y             Z
 A  0.64382E+00  0.60765E+00  0.46503E+00
 B -0.32425E+00  0.76714E+00 -0.55350E+00
 C -0.69307E+00  0.20557E+00  0.69093E+00
 NON BONDING WANNIER FUNCTION
 DISTANCE CENTROID-ATOM    3(  0  0  0) :   0.46068E+00
 ATOMIC POPULATION DATA:
  3 ZN(  0  0  0)  1.0027
 A.O. POPULATIONS OF ATOM    3(  0  0  0):
  -0.0000  -0.0038   0.0604   0.0425   0.0012  -0.0004   0.0003   0.0002
   0.0000  -0.0009  -0.0055  -0.0029   0.0261   0.1468   0.0788   0.0066
   0.0364   0.0192   0.0001   0.0124   0.1861   0.0450   0.0852   0.0000
   0.0074   0.1101   0.0268   0.0512   0.0000   0.0030   0.0400   0.0101
   0.0202
~~~~~~~~~~~~~~~~~~~~~~~~~~~~~~~~~~~~~~~~~~~~~~~~~~~~~~~~~~~~~~~~~~~~~~~~~~~~~~~~
 WANNIER NUMBER   76 ATOMIC EXTENT  1.0365
 CENTROID'S COORDINATES R0:   -0.35209E+01    0.51460E+01   -0.39412E+01
 EXPECTATION VALUE OF (R-R0)**2:  0.16371E+01
 SECOND ORDER TENSOR IN CARTESIAN AXES:
         X             Y             Z
 X  0.66597E+00 -0.45500E-01  0.17511E+00
 Y -0.45500E-01  0.42708E+00 -0.37947E-01
 Z  0.17511E+00 -0.37947E-01  0.54402E+00
 TENSOR EIGENVALUES:
 A  0.79978E+00  B  0.41404E+00  C  0.42326E+00
 PRINCIPAL AXES:
         X             Y             Z
 A  0.80398E+00 -0.15656E+00  0.57368E+00
 B -0.26833E+00  0.76541E+00  0.58494E+00
 C -0.53068E+00 -0.62421E+00  0.57336E+00
 NON BONDING WANNIER FUNCTION
 DISTANCE CENTROID-ATOM    8(  0  0  0) :   0.55291E+00
 ATOMIC POPULATION DATA:
  1 BA(  0  0  0)  0.0130   8 F (  0  0  0)  0.9821
 A.O. POPULATIONS OF ATOM    1(  0  0  0):
   0.0000  -0.0013   0.0055  -0.0003  -0.0000  -0.0002  -0.0006  -0.0001
  -0.0003   0.0000   0.0004   0.0001   0.0002   0.0001   0.0000   0.0052
   0.0007   0.0020   0.0015
 A.O. POPULATIONS OF ATOM    8(  0  0  0):
   0.0013  -0.0080   0.0695   0.1060   0.0871   0.1614   0.0058   0.0735
   0.1542   0.0049   0.0694   0.1735   0.0055   0.0782   0.0000  -0.0000
   0.0000  -0.0000   0.0000
~~~~~~~~~~~~~~~~~~~~~~~~~~~~~~~~~~~~~~~~~~~~~~~~~~~~~~~~~~~~~~~~~~~~~~~~~~~~~~~~

 ATOMIC DELOCALISATION INDEX (BEFORE BOYS)     1.026709563    
 NORM        75.9999998142   (ERR PER WF    0.24E-08)
 DIPOLE MOMENT(AU)  0.32481404E-05  0.55073955E+02  0.16624533E+02
 TTTTTTTTTTTTTTTTTTTTTTTTTTTTTT WRPOP       TELAPSE      256.07 TCPU      256.03
 ------------------------------------------------------------------------------------
 TTTTTTTTTTTTTTTTTTTTTTTTTTTTTT SYMMEND2    TELAPSE      256.09 TCPU      256.05
 TTTTTTTTTTTTTTTTTTTTTTTTTTTTTT LOCALI      TELAPSE      256.09 TCPU      256.06
 ENDPROP   
 TTTTTTTTTTTTTTTTTTTTTTTTTTTTTT END         TELAPSE      256.09 TCPU      256.06
 EEEEEEEEEE TERMINATION  DATE 24 01 2025 TIME 17:00:24.0
------------------------------------------------------
properties finished normally
------------------------------------------------------
Localized Wannier Functions fort.80 saved as /Data/Sachs/projekte/ferroelectric_fluorides/calculations/BaZnF4_oS24_SG63_PBE0_tzvp_wannier/0.wannier
File fort.37 saved as /Data/Sachs/projekte/ferroelectric_fluorides/calculations/BaZnF4_oS24_SG63_PBE0_tzvp_wannier/0.locali
Date: 2025-01-24 17:00:24