Date: 2025-01-24 17:00:24
Running on: AGKraus-Super-Server
Temporary directory: /scratch/sachs//CRY_3585404
Executable: /Data/Software/crystal/crystal23/bin/Linux-ifort_i64/v1.0.1_openmpi//properties
Output: /Data/Sachs/projekte/ferroelectric_fluorides/calculations/BaZnF4_oS24_SG63_PBE0_tzvp_wannier/1.prop.out
Properties input data 1.d3
NEWK
0 8
8 8 5
1 0
LOCALI
END
END
END
Creating temporary directory /scratch/sachs//CRY_3585404 on node AGKraus-Super-Server
SCF wavefunction 1.w is available as /scratch/sachs//CRY_3585404/fort.9

         
 *******************************************************************************
 *                                                                             *
 *                               CRYSTAL23                                     *
 *                      public : 1.0.1 - October 2022                          *
 *                       HTTP://WWW.CRYSTAL.UNITO.IT                           *
 *                                                                             *
 *                              MAIN AUTHORS                                   *
 *                                                                             *
 *  R. DOVESI(1,11), V.R. SAUNDERS(2), C. ROETTI(1,11), R. ORLANDO(1,11),      *
 *  C.M. ZICOVICH-WILSON(1,3), F. PASCALE(4), B. CIVALLERI(1,11),              *
 *  K. DOLL(5), N.M. HARRISON(6), I.J. BUSH(7), Ph. D'ARCO(8),                 *
 *  M. LLUNELL(9), M. CAUSA'(10), Y. NOEL(8), L. MASCHIO(1,11), A. ERBA(1,11)  *
 *  M. RE'RAT(14), S. CASASSA(1,11), B.G. SEARLE(2), J.K. DESMARAIS(1)         *
 *                                                                             *
 *        CONTRIBUTIONS TO THE CODE HAVE ALSO BEEN GIVEN BY                    *
 *                                                                             *
 *  M. FERRABONE(1,11), M. DE LA PIERRE(1,11), M. FERRERO(1,11),               *
 *  J. BAIMA(1,11), E. ALBANESE(1,11), M.F. PEINTINGER(12), R. BAST(13),       *
 *  B. KIRTMAN(15), V. LACIVITA(1,11), R. DEMICHELIS(1,16)                     *
 *  G. BRANDEBURG(17), S. SALUSTRO(1,11), G. SANSONE(1,11)                     *
 *  M.T. RUGGIERO(18), L.E. DAGA(1), L. DONA'(1), A. COSSARD(1)                *
 *                                                                             *
 * (1) THEORETICAL CHEMISTRY GROUP - UNIVERSITA' DI TORINO - TORINO (ITALY)    *
 * (2) SCIENTIFIC COMPUTING DEPARTMENT - STFC DARESBURY (UK)                   *
 * (3) UNIVERSIDAD AUTONOMA DEL ESTADO DE MORELOS - CUERNAVACA (MEXICO)        *
 * (4) UNIVERSITE' DE LORRAINE - NANCY (FRANCE)                                *
 * (5) UNIVERSITAET STUTTGART- STUTTGART (GERMANY)                             *
 * (6) IMPERIAL COLLEGE - LONDON (UK)                                          *
 * (7) SCIENTIFIC COMPUTING DEPARTMENT - STFC RAL (UK)                         *
 * (8) UPMC - SORBONNE UNIVERSITES - PARIS (FRANCE)                            *
 * (9) UNIVERSIDAD DE BARCELONA - BARCELONA (SPAIN)                            *
 *(10) UNIVERSITA' DI NAPOLI "FEDERICO II" - NAPOLI (ITALY)                    *
 *(11) NIS - NANOSTRUCTURED INTERFACES AND SURFACES - TORINO (ITALY)           *
 *(12) MPI FUER CHEMISCHE ENERGIEKONVERSION - MUELHEIM AN DER RUHR (GERMANY)   *
 *(13) UNIVERSITY OF TROMSO - TROMSO (NORWAY)                                  *
 *(14) UNIVERSITE' DE PAU ET DES PAYS DE L'ADOUR - PAU (FRANCE)                *
 *(15) UNIVERSITY OF CALIFORNIA SANTA BARBARA - SANTA BARBARA (USA)            *
 *(16) CURTIN UNIVERSITY - PERTH (AUSTRALIA)                                   *
 *(17) UNIVERSITY COLLEGE LONDON - LONDON (UK)                                 *
 *(18) UNIVERSITY OF VERMONT - BURLINGTON (USA)                                *
 *                                                                             *
 *******************************************************************************
 EEEEEEEEEE STARTING  DATE 24 01 2025 TIME 17:00:24.1
 INFORMATION **** SET_MPP **** PCRYSTAL CALCULATION

 *******************************************************************************
 Polarisation path Nr. 1.                                                        
 CRYSTAL - PROPERTIES - TYPE OF CALCULATION :  RESTRICTED CLOSED SHELL
 *******************************************************************************
 KOHN-SHAM HAMILTONIAN

 (EXCHANGE)[CORRELATION] FUNCTIONAL:(PERDEW-BURKE-ERNZERHOF)[PERDEW-BURKE-ERNZERHOF]


 HYBRID EXCHANGE - PERCENTAGE OF FOCK EXCHANGE    25.0000

 DIRECT LATTICE VECTOR COMPONENTS (ANGSTROM)
         2.10290    7.28597    0.00000
        -2.10290    7.28597    0.00000
         0.00000    0.00000    5.86498

 LATTICE PARAMETERS  (ANGSTROM AND DEGREES) - PRIMITIVE CELL
       A          B          C         ALPHA      BETA     GAMMA        VOLUME
    7.58337    7.58337    5.86498     90.0000   90.0000   32.1988     179.72270
 *******************************************************************************
 N. OF ATOMS PER CELL        12 COULOMB OVERLAP TOL          (T1) 10**   -8
 NUMBER OF SHELLS           100 COULOMB PENETRATION TOL      (T2) 10**   -8
 NUMBER OF AO               256 EXCHANGE OVERLAP TOL         (T3) 10**   -8
 N. OF ELECTRONS PER CELL   152 EXCHANGE PSEUDO OVP (F(G))   (T4) 10**   -8
 CORE ELECTRONS PER CELL     52 EXCHANGE PSEUDO OVP (P(G))   (T5) 10**  -16
 N. OF SYMMETRY OPERATORS     4 POLE ORDER IN MONO ZONE                   4
 CORE  PSEUDO POTENTIAL         TOL. ON PSEUDO              (TP) 10**- 6
 *******************************************************************************
   ATOM N.AT.  SHELL    X(A)      Y(A)      Z(A)      EXAD       N.ELECT.
 *******************************************************************************
    1  256 BA    6    -0.000     2.083    -0.778   2.732E-01       8.286
    2  256 BA    6     0.000    -2.083     2.154   2.732E-01       8.286
    3   30 ZN   12    -2.103    -1.367    -0.838   3.903E-01      28.874
    4   30 ZN   12    -2.103     1.367     2.095   3.903E-01      28.874
    5    9 F     8    -2.103    -2.807    -2.231   1.400E+00       9.731
    6    9 F     8    -2.103     2.807     0.701   1.400E+00       9.731
    7    9 F     8    -2.103    -2.690     0.660   1.400E+00       9.731
    8    9 F     8    -2.103     2.690    -2.273   1.400E+00       9.731
    9    9 F     8    -0.000     1.186     2.072   1.400E+00       9.696
   10    9 F     8     0.000    -1.186    -0.860   1.400E+00       9.696
   11    9 F     8    -2.103    -0.114    -2.422   1.400E+00       9.683
   12    9 F     8    -2.103     0.114     0.511   1.400E+00       9.683
 *******************************************************************************
 DE(K)                   0.000E+00  ENERGY LEVEL SHIFTING        0.00000
 TOTAL ENERGY -4.4084043017584E+03  CONVERGENCE ON ENER       -1.561E-08
 KIN. ENERGY   4.3658981676233E+03  VIR. COEFF.           1.01556978E+00
 N. OF SCF CYCLES               10  FERMI ENERGY              -0.246E+00
 WEIGHT OF F(I) IN F(I+1)      80
 SHRINK. FACT.(MONKH.)     8  8  5  SHRINKING FACTOR(GILAT NET)        8
 NUMBER OF K POINTS IN THE IBZ  63  CELL VOLUME (A.U.)       1212.828899
 *******************************************************************************

 GCALCO - MAX INDICES DIRECT LATTICE VECTOR    16    16    11
 NO.OF VECTORS CREATED 6999 STARS 1033 RMAX   126.66320 BOHR
 TTTTTTTTTTTTTTTTTTTTTTTTTTTTTT gordsh1     TELAPSE        0.05 TCPU        0.05

 MATRIX SIZE: P(G)  375280, F(G)   64752, P(G) IRR   59936, F(G) IRR   22325
 MAX G-VECTOR INDEX FOR 1- AND 2-ELECTRON INTEGRALS 101


 CAPPA:IS1  8;IS2  8;IS3  5; K PTS MONK NET  63; SYMMOPS:K SPACE   8;G SPACE   4


 CAPPA:IS1  8;IS2  8;IS3  5; K PTS MONK NET  63; SYMMOPS:K SPACE   8;G SPACE   4

 *******************************************************************************
 RESTART WITH NEW K POINTS NET
 *******************************************************************************
 POINTS IN THE IBZ                  63 POINTS(GILAT NET)                63
 SHRINK FACTORS(MONK.)         8  8  5 SHRINK FACTOR(GILAT)              8
 *******************************************************************************
 *** K POINTS COORDINATES (OBLIQUE COORDINATES IN UNITS OF IS =  8)
   1-R(  0  0  0)   2-C(  1  0  0)   3-C(  2  0  0)   4-C(  3  0  0)
   5-R(  4  0  0)   6-C(  1  1  0)   7-C(  2  1  0)   8-C(  3  1  0)
   9-C(  4  1  0)  10-C(  5  1  0)  11-C(  6  1  0)  12-C(  7  1  0)
  13-C(  2  2  0)  14-C(  3  2  0)  15-C(  4  2  0)  16-C(  5  2  0)
  17-C(  6  2  0)  18-C(  3  3  0)  19-C(  4  3  0)  20-C(  5  3  0)
  21-R(  4  4  0)  22-C(  0  0  1)  23-C(  1  0  1)  24-C(  2  0  1)
  25-C(  3  0  1)  26-C(  4  0  1)  27-C(  1  1  1)  28-C(  2  1  1)
  29-C(  3  1  1)  30-C(  4  1  1)  31-C(  5  1  1)  32-C(  6  1  1)
  33-C(  7  1  1)  34-C(  2  2  1)  35-C(  3  2  1)  36-C(  4  2  1)
  37-C(  5  2  1)  38-C(  6  2  1)  39-C(  3  3  1)  40-C(  4  3  1)
  41-C(  5  3  1)  42-C(  4  4  1)  43-C(  0  0  2)  44-C(  1  0  2)
  45-C(  2  0  2)  46-C(  3  0  2)  47-C(  4  0  2)  48-C(  1  1  2)
  49-C(  2  1  2)  50-C(  3  1  2)  51-C(  4  1  2)  52-C(  5  1  2)
  53-C(  6  1  2)  54-C(  7  1  2)  55-C(  2  2  2)  56-C(  3  2  2)
  57-C(  4  2  2)  58-C(  5  2  2)  59-C(  6  2  2)  60-C(  3  3  2)
  61-C(  4  3  2)  62-C(  5  3  2)  63-C(  4  4  2)

 FERMI ENERGY AND DENSITY MATRIX CALCULATION ON COMPUTED EIGENVECTORS
 DENSITY MATRIX AT SCF CYCLE ( 10+1)

 INSULATING STATE
 TOP OF VALENCE BANDS -    BAND     76; K    1; EIG -2.4625095E-01 AU
 BOTTOM OF VIRTUAL BANDS - BAND     77; K    1; EIG  5.9337370E-02 AU
 DIRECT ENERGY BAND GAP:   8.3155 eV

 CORE DENSITY MATRIX CALCULATION
 TTTTTTTTTTTTTTTTTTTTTTTTTTTTTT NEWK        TELAPSE        7.20 TCPU        7.20
 INSULATING STATE
 TOP OF VALENCE BANDS -    BAND     76; K    1; EIG -2.4625095E-01 AU
 BOTTOM OF VIRTUAL BANDS - BAND     77; K    1; EIG  5.9337370E-02 AU
 DIRECT ENERGY BAND GAP:   8.3155 eV

 LOCALISATION OF THE CRYSTALLINE ORBITALS
 ACCORDING TO A WANNIER-BOYS MIXED SCHEME

 LIST OF ACTIVE BANDS
      1     2     3     4     5     6     7     8     9    10    11    12    13
     14    15    16    17    18    19    20    21    22    23    24    25    26
     27    28    29    30    31    32    33    34    35    36    37    38    39
     40    41    42    43    44    45    46    47    48    49    50    51    52
     53    54    55    56    57    58    59    60    61    62    63    64    65
     66    67    68    69    70    71    72    73    74    75    76

 CONVERGENCE CRITERION: ABS(ADI(N) - ADI(N-1)) LT  0.1000E-04
 WHERE ADI IS THE ATOMIC DELOCALISATION INDEX AND N IS THE CYCLE NUMBER

 OMEGA IS THE SUM OF THE (X -X0)**2 EXPECTATION VALUES (MARZARI-VANDERBILT'S
 FUNCTIONAL)
 N OF CELLS IN THE MAXIMUM CYCLIC AND UNFOLDED CLUSTERS:  320  975
 N OF VERTICES IN THE UNFOLDED CLUSTER:  2
 TTTTTTTTTTTTTTTTTTTTTTTTTTTTTT SDKVDK      TELAPSE        7.67 TCPU        7.67

 *******************************************************************************
 CYCLE  1, DIPOLE MATRIX ELEMENTS EVALUATED WHEN WANNIER COEFF GT 10**-5
 AUTOMATIC INITIAL GUESS REQUESTED
 TTTTTTTTTTTTTTTTTTTTTTTTTTTTTT WAN0        TELAPSE        9.82 TCPU        9.82
 CLUSTER SIZE =  169 UNIT CELLS
 TTTTTTTTTTTTTTTTTTTTTTTTTTTTTT WANTOL      TELAPSE       10.26 TCPU       10.22
 TTTTTTTTTTTTTTTTTTTTTTTTTTTTTT BOYS1       TELAPSE       49.38 TCPU       49.34

 ATOMIC DELOCALISATION INDEX (BEFORE BOYS)     2.881512829    
 NORM        75.9999972595   (ERR PER WF    0.36E-07)
 BOYS LOCALISED FUNCTIONS AFTER   96 CYCLES (MAX = 500 TOL = 0.1E-07)

 SUM OF THE SQUARES OF THE DISTANCES BETWEEN CENTROIDS = 141212.    
 TTTTTTTTTTTTTTTTTTTTTTTTTTTTTT BOYS3       TELAPSE       49.45 TCPU       49.41
 OMEGA =   92.08266452          ABS(OMEGA(N)-OMEGA(N-1)) =   0.92083E+02
 TTTTTTTTTTTTTTTTTTTTTTTTTTTTTT BOYS1       TELAPSE       54.01 TCPU       53.97

 ATOMIC DELOCALISATION INDEX (AFTER  BOYS)     1.027110165    
 NORM        75.9999972595   (ERR PER WF    0.36E-07)
 TTTTTTTTTTTTTTTTTTTTTTTTTTTTTT WANTST      TELAPSE       54.01 TCPU       53.97

 *******************************************************************************
 CYCLE  2, DIPOLE MATRIX ELEMENTS EVALUATED WHEN WANNIER COEFF GT 10**-5
 TTTTTTTTTTTTTTTTTTTTTTTTTTTTTT WAN0        TELAPSE       56.04 TCPU       56.00
 CLUSTER SIZE =  169 UNIT CELLS
 TTTTTTTTTTTTTTTTTTTTTTTTTTTTTT WANTOL      TELAPSE       56.39 TCPU       56.35
 TTTTTTTTTTTTTTTTTTTTTTTTTTTTTT BOYS1       TELAPSE       94.82 TCPU       94.78

 ATOMIC DELOCALISATION INDEX (BEFORE BOYS)     1.025989374    
 NORM        75.9999998255   (ERR PER WF    0.23E-08)
 BOYS LOCALISED FUNCTIONS AFTER   18 CYCLES (MAX = 500 TOL = 0.1E-07)

 SUM OF THE SQUARES OF THE DISTANCES BETWEEN CENTROIDS = 141229.    
 TTTTTTTTTTTTTTTTTTTTTTTTTTTTTT BOYS3       TELAPSE       94.84 TCPU       94.79
 OMEGA =   90.05514170          ABS(OMEGA(N)-OMEGA(N-1)) =   0.20275E+01
 TTTTTTTTTTTTTTTTTTTTTTTTTTTTTT BOYS1       TELAPSE       99.23 TCPU       99.19

 ATOMIC DELOCALISATION INDEX (AFTER  BOYS)     1.026510388    
 NORM        75.9999998255   (ERR PER WF    0.23E-08)
 TTTTTTTTTTTTTTTTTTTTTTTTTTTTTT WANTST      TELAPSE       99.23 TCPU       99.19

 *******************************************************************************
 CYCLE  3, DIPOLE MATRIX ELEMENTS EVALUATED WHEN WANNIER COEFF GT 10**-5
 TTTTTTTTTTTTTTTTTTTTTTTTTTTTTT WAN0        TELAPSE      101.23 TCPU      101.19
 CLUSTER SIZE =  169 UNIT CELLS
 TTTTTTTTTTTTTTTTTTTTTTTTTTTTTT WANTOL      TELAPSE      101.59 TCPU      101.54
 TTTTTTTTTTTTTTTTTTTTTTTTTTTTTT BOYS1       TELAPSE      139.96 TCPU      139.92

 ATOMIC DELOCALISATION INDEX (BEFORE BOYS)     1.025987775    
 NORM        75.9999998232   (ERR PER WF    0.23E-08)
 BOYS LOCALISED FUNCTIONS AFTER    5 CYCLES (MAX = 500 TOL = 0.1E-07)

 SUM OF THE SQUARES OF THE DISTANCES BETWEEN CENTROIDS = 141229.    
 TTTTTTTTTTTTTTTTTTTTTTTTTTTTTT BOYS3       TELAPSE      139.96 TCPU      139.92
 OMEGA =   90.05499866          ABS(OMEGA(N)-OMEGA(N-1)) =   0.14304E-03
 TTTTTTTTTTTTTTTTTTTTTTTTTTTTTT BOYS1       TELAPSE      144.41 TCPU      144.36

 ATOMIC DELOCALISATION INDEX (AFTER  BOYS)     1.026510306    
 NORM        75.9999998232   (ERR PER WF    0.23E-08)
 TTTTTTTTTTTTTTTTTTTTTTTTTTTTTT WANTST      TELAPSE      144.41 TCPU      144.36

 *******************************************************************************
 FINAL RESULTS 

 WANNIER F LOCALIZATION - CONVERGENCE ACHIEVED     0.8134E-07
 TTTTTTTTTTTTTTTTTTTTTTTTTTTTTT BOYS1       TELAPSE      202.06 TCPU      202.01

 WANNIER ATOMIC POPULATIONS LARGER THAN   0.10E-01 ARE GIVEN
 DATA ARE AS FOLLOWS: ATOM, CELL INDICES AND ATOMIC POPULATION

~~~~~~~~~~~~~~~~~~~~~~~~~~~~~~~~~~~~~~~~~~~~~~~~~~~~~~~~~~~~~~~~~~~~~~~~~~~~~~~~
 WANNIER NUMBER    1 ATOMIC EXTENT  0.9964
 CENTROID'S COORDINATES R0:   -0.37610E+01   -0.22306E+01   -0.13156E+01
 EXPECTATION VALUE OF (R-R0)**2:  0.58298E+00
 SECOND ORDER TENSOR IN CARTESIAN AXES:
         X             Y             Z
 X  0.17270E+00  0.32921E-01  0.37813E-01
 Y  0.32921E-01  0.22340E+00  0.47099E-01
 Z  0.37813E-01  0.47099E-01  0.18688E+00
 TENSOR EIGENVALUES:
 A  0.16398E+00  B  0.27824E+00  C  0.14076E+00
 PRINCIPAL AXES:
         X             Y             Z
 A  0.56842E+00 -0.68094E+00  0.46175E+00
 B  0.42159E+00  0.72303E+00  0.54726E+00
 C -0.70651E+00 -0.11640E+00  0.69806E+00
 NON BONDING WANNIER FUNCTION
 DISTANCE CENTROID-ATOM    3(  0  0  0) :   0.49062E+00
 ATOMIC POPULATION DATA:
  3 ZN(  0  0  0)  1.0018
 A.O. POPULATIONS OF ATOM    3(  0  0  0):
  -0.0001  -0.0043   0.0710   0.0502   0.0014  -0.0003  -0.0001   0.0003
   0.0002  -0.0021  -0.0053  -0.0029   0.0578   0.1479   0.0805   0.0145
   0.0369   0.0203   0.0002   0.0266   0.1519   0.0153   0.1007   0.0001
   0.0160   0.0897   0.0091   0.0605   0.0001   0.0064   0.0320   0.0034
   0.0239
~~~~~~~~~~~~~~~~~~~~~~~~~~~~~~~~~~~~~~~~~~~~~~~~~~~~~~~~~~~~~~~~~~~~~~~~~~~~~~~~
 WANNIER NUMBER    2 ATOMIC EXTENT  0.9976
 CENTROID'S COORDINATES R0:   -0.36941E+01    0.28978E+01    0.42092E+01
 EXPECTATION VALUE OF (R-R0)**2:  0.59087E+00
 SECOND ORDER TENSOR IN CARTESIAN AXES:
         X             Y             Z
 X  0.19778E+00  0.53364E-01  0.26508E-01
 Y  0.53364E-01  0.19748E+00  0.46897E-01
 Z  0.26508E-01  0.46897E-01  0.19561E+00
 TENSOR EIGENVALUES:
 A  0.28252E+00  B  0.13804E+00  C  0.17031E+00
 PRINCIPAL AXES:
         X             Y             Z
 A  0.56589E+00  0.64103E+00  0.51850E+00
 B -0.51207E+00  0.76615E+00 -0.38833E+00
 C -0.64618E+00 -0.45755E-01  0.76181E+00
 NON BONDING WANNIER FUNCTION
 DISTANCE CENTROID-ATOM    4(  0  0  0) :   0.49022E+00
 ATOMIC POPULATION DATA:
  4 ZN(  0  0  0)  1.0012
 A.O. POPULATIONS OF ATOM    4(  0  0  0):
  -0.0001  -0.0043   0.0704   0.0498   0.0014   0.0001   0.0006   0.0002
   0.0000  -0.0035  -0.0041  -0.0028   0.0958   0.1134   0.0773   0.0240
   0.0284   0.0191   0.0091   0.1001   0.0876   0.0037   0.0920   0.0055
   0.0602   0.0518   0.0022   0.0553   0.0023   0.0240   0.0188   0.0009
   0.0219
~~~~~~~~~~~~~~~~~~~~~~~~~~~~~~~~~~~~~~~~~~~~~~~~~~~~~~~~~~~~~~~~~~~~~~~~~~~~~~~~
 WANNIER NUMBER    3 ATOMIC EXTENT  1.0000
 CENTROID'S COORDINATES R0:   -0.38985E+01    0.25450E+01    0.40163E+01
 EXPECTATION VALUE OF (R-R0)**2:  0.41850E-01
 SECOND ORDER TENSOR IN CARTESIAN AXES:
         X             Y             Z
 X  0.14907E-01 -0.11853E-02  0.17896E-02
 Y -0.11853E-02  0.13049E-01 -0.91943E-03
 Z  0.17896E-02 -0.91943E-03  0.13894E-01
 TENSOR EIGENVALUES:
 A  0.16852E-01  B  0.12454E-01  C  0.12544E-01
 PRINCIPAL AXES:
         X             Y             Z
 A  0.74108E+00 -0.36692E+00  0.56229E+00
 B  0.16888E+00  0.91241E+00  0.37280E+00
 C -0.64983E+00 -0.18132E+00  0.73814E+00
 NON BONDING WANNIER FUNCTION
 DISTANCE CENTROID-ATOM    4(  0  0  0) :   0.10214E+00
 ATOMIC POPULATION DATA:
  4 ZN(  0  0  0)  1.0000
 A.O. POPULATIONS OF ATOM    4(  0  0  0):
  -0.0063   0.2656  -0.0035  -0.0063   0.0003  -0.0001  -0.0000  -0.0000
  -0.0000   0.4206   0.1052   0.2449  -0.0113  -0.0028  -0.0066   0.0001
   0.0000   0.0000   0.0000   0.0000   0.0000   0.0000   0.0000   0.0000
   0.0000   0.0000   0.0000   0.0000   0.0000   0.0000   0.0000   0.0000
   0.0000
~~~~~~~~~~~~~~~~~~~~~~~~~~~~~~~~~~~~~~~~~~~~~~~~~~~~~~~~~~~~~~~~~~~~~~~~~~~~~~~~
 WANNIER NUMBER    4 ATOMIC EXTENT  1.0000
 CENTROID'S COORDINATES R0:   -0.38980E+01   -0.25698E+01   -0.16501E+01
 EXPECTATION VALUE OF (R-R0)**2:  0.41826E-01
 SECOND ORDER TENSOR IN CARTESIAN AXES:
         X             Y             Z
 X  0.14906E-01  0.38659E-03 -0.20907E-02
 Y  0.38659E-03  0.12573E-01 -0.40211E-03
 Z -0.20907E-02 -0.40211E-03  0.14348E-01
 TENSOR EIGENVALUES:
 A  0.16809E-01  B  0.12460E-01  C  0.12557E-01
 PRINCIPAL AXES:
         X             Y             Z
 A  0.74509E+00  0.13008E+00 -0.65416E+00
 B  0.34560E+00  0.76355E+00  0.54548E+00
 C  0.57044E+00 -0.63251E+00  0.52396E+00
 NON BONDING WANNIER FUNCTION
 DISTANCE CENTROID-ATOM    3(  0  0  0) :   0.10216E+00
 ATOMIC POPULATION DATA:
  3 ZN(  0  0  0)  1.0000
 A.O. POPULATIONS OF ATOM    3(  0  0  0):
  -0.0063   0.2658  -0.0035  -0.0063   0.0003  -0.0001  -0.0000  -0.0000
  -0.0000   0.4249   0.0124   0.3332  -0.0114  -0.0003  -0.0090   0.0000
   0.0000   0.0000   0.0000   0.0000   0.0000   0.0000   0.0000   0.0000
   0.0000   0.0000   0.0000   0.0000   0.0000   0.0000   0.0000   0.0000
   0.0000
~~~~~~~~~~~~~~~~~~~~~~~~~~~~~~~~~~~~~~~~~~~~~~~~~~~~~~~~~~~~~~~~~~~~~~~~~~~~~~~~
 WANNIER NUMBER    5 ATOMIC EXTENT  1.0000
 CENTROID'S COORDINATES R0:   -0.39739E+01    0.25827E+01    0.39587E+01
 EXPECTATION VALUE OF (R-R0)**2:  0.45788E-02
 SECOND ORDER TENSOR IN CARTESIAN AXES:
         X             Y             Z
 X  0.15258E-02  0.12145E-06  0.11016E-06
 Y  0.12145E-06  0.15269E-02 -0.42760E-06
 Z  0.11016E-06 -0.42760E-06  0.15262E-02
 TENSOR EIGENVALUES:
 A  0.15257E-02  B  0.15271E-02  C  0.15261E-02
 PRINCIPAL AXES:
         X             Y             Z
 A  0.84339E+00 -0.26826E+00 -0.46554E+00
 B  0.50017E-01  0.90188E+00 -0.42909E+00
 C  0.53497E+00  0.33860E+00  0.77405E+00
 NON BONDING WANNIER FUNCTION
 DISTANCE CENTROID-ATOM    4(  0  0  0) :   0.29981E-06
 ATOMIC POPULATION DATA:
  4 ZN(  0  0  0)  1.0000
 A.O. POPULATIONS OF ATOM    4(  0  0  0):
   1.0253  -0.0251  -0.0007   0.0005  -0.0001   0.0000   0.0000   0.0000
  -0.0000   0.0000   0.0000   0.0000   0.0000   0.0000   0.0000   0.0000
   0.0000   0.0000   0.0000   0.0000   0.0000   0.0000   0.0000   0.0000
   0.0000   0.0000   0.0000   0.0000  -0.0000   0.0000   0.0000  -0.0000
   0.0000
~~~~~~~~~~~~~~~~~~~~~~~~~~~~~~~~~~~~~~~~~~~~~~~~~~~~~~~~~~~~~~~~~~~~~~~~~~~~~~~~
 WANNIER NUMBER    6 ATOMIC EXTENT  1.0000
 CENTROID'S COORDINATES R0:   -0.39739E+01   -0.25827E+01   -0.15829E+01
 EXPECTATION VALUE OF (R-R0)**2:  0.45784E-02
 SECOND ORDER TENSOR IN CARTESIAN AXES:
         X             Y             Z
 X  0.15251E-02 -0.47685E-06 -0.38054E-06
 Y -0.47685E-06  0.15260E-02  0.10192E-05
 Z -0.38054E-06  0.10192E-05  0.15273E-02
 TENSOR EIGENVALUES:
 A  0.15249E-02  B  0.15255E-02  C  0.15280E-02
 PRINCIPAL AXES:
         X             Y             Z
 A  0.90290E+00  0.42819E+00 -0.37641E-01
 B -0.38515E+00  0.76702E+00 -0.51316E+00
 C -0.19086E+00  0.47783E+00  0.85747E+00
 NON BONDING WANNIER FUNCTION
 DISTANCE CENTROID-ATOM    3(  0  0  0) :   0.18946E-06
 ATOMIC POPULATION DATA:
  3 ZN(  0  0  0)  1.0000
 A.O. POPULATIONS OF ATOM    3(  0  0  0):
   1.0253  -0.0251  -0.0007   0.0005  -0.0001   0.0000   0.0000   0.0000
   0.0000   0.0000   0.0000   0.0000   0.0000   0.0000   0.0000  -0.0000
   0.0000   0.0000   0.0000   0.0000   0.0000   0.0000   0.0000   0.0000
   0.0000   0.0000  -0.0000   0.0000  -0.0000   0.0000   0.0000  -0.0000
   0.0000
~~~~~~~~~~~~~~~~~~~~~~~~~~~~~~~~~~~~~~~~~~~~~~~~~~~~~~~~~~~~~~~~~~~~~~~~~~~~~~~~
 WANNIER NUMBER    7 ATOMIC EXTENT  0.9985
 CENTROID'S COORDINATES R0:   -0.42937E+01    0.29018E+01    0.41509E+01
 EXPECTATION VALUE OF (R-R0)**2:  0.59403E+00
 SECOND ORDER TENSOR IN CARTESIAN AXES:
         X             Y             Z
 X  0.20941E+00 -0.61642E-01 -0.23930E-01
 Y -0.61642E-01  0.20065E+00  0.36151E-01
 Z -0.23930E-01  0.36151E-01  0.18398E+00
 TENSOR EIGENVALUES:
 A  0.28461E+00  B  0.13982E+00  C  0.16961E+00
 PRINCIPAL AXES:
         X             Y             Z
 A  0.65493E+00 -0.64813E+00 -0.38858E+00
 B  0.56550E+00  0.76143E+00 -0.31690E+00
 C  0.50127E+00 -0.12198E-01  0.86520E+00
 NON BONDING WANNIER FUNCTION
 DISTANCE CENTROID-ATOM    4(  0  0  0) :   0.49089E+00
 ATOMIC POPULATION DATA:
  4 ZN(  0  0  0)  1.0008
 A.O. POPULATIONS OF ATOM    4(  0  0  0):
  -0.0001  -0.0043   0.0697   0.0494   0.0014   0.0004   0.0007   0.0003
  -0.0000  -0.0045  -0.0042  -0.0016   0.1247   0.1163   0.0452   0.0312
   0.0291   0.0111   0.0382   0.0731   0.0551   0.0001   0.1257   0.0229
   0.0439   0.0326   0.0001   0.0756   0.0091   0.0175   0.0119   0.0000
   0.0299
~~~~~~~~~~~~~~~~~~~~~~~~~~~~~~~~~~~~~~~~~~~~~~~~~~~~~~~~~~~~~~~~~~~~~~~~~~~~~~~~
 WANNIER NUMBER    8 ATOMIC EXTENT  0.9989
 CENTROID'S COORDINATES R0:   -0.43597E+01   -0.28384E+01   -0.15414E+01
 EXPECTATION VALUE OF (R-R0)**2:  0.64943E+00
 SECOND ORDER TENSOR IN CARTESIAN AXES:
         X             Y             Z
 X  0.27549E+00  0.81078E-01 -0.18798E-01
 Y  0.81078E-01  0.20716E+00  0.43600E-02
 Z -0.18798E-01  0.43600E-02  0.16677E+00
 TENSOR EIGENVALUES:
 A  0.33039E+00  B  0.14423E+00  C  0.17481E+00
 PRINCIPAL AXES:
         X             Y             Z
 A  0.83394E+00  0.54583E+00 -0.81270E-01
 B -0.49589E+00  0.67659E+00 -0.54434E+00
 C -0.24213E+00  0.49425E+00  0.83492E+00
 NON BONDING WANNIER FUNCTION
 DISTANCE CENTROID-ATOM    3(  0  0  0) :   0.46472E+00
 ATOMIC POPULATION DATA:
  3 ZN(  0  0  0)  1.0006
 A.O. POPULATIONS OF ATOM    3(  0  0  0):
  -0.0000  -0.0036   0.0572   0.0406   0.0014   0.0015   0.0010   0.0003
  -0.0000  -0.0062  -0.0027  -0.0001   0.1699   0.0752   0.0021   0.0426
   0.0189   0.0005   0.0985   0.0012   0.0124   0.0359   0.1813   0.0588
   0.0007   0.0074   0.0212   0.1090   0.0223   0.0003   0.0027   0.0073
   0.0431
~~~~~~~~~~~~~~~~~~~~~~~~~~~~~~~~~~~~~~~~~~~~~~~~~~~~~~~~~~~~~~~~~~~~~~~~~~~~~~~~
 WANNIER NUMBER    9 ATOMIC EXTENT  1.0000
 CENTROID'S COORDINATES R0:   -0.39544E+01   -0.25283E+01   -0.14986E+01
 EXPECTATION VALUE OF (R-R0)**2:  0.41832E-01
 SECOND ORDER TENSOR IN CARTESIAN AXES:
         X             Y             Z
 X  0.12650E-01  0.43776E-03  0.70410E-03
 Y  0.43776E-03  0.13740E-01  0.19066E-02
 Z  0.70410E-03  0.19066E-02  0.15442E-01
 TENSOR EIGENVALUES:
 A  0.12477E-01  B  0.12512E-01  C  0.16842E-01
 PRINCIPAL AXES:
         X             Y             Z
 A  0.84021E+00  0.34292E+00 -0.42007E+00
 B -0.50639E+00  0.77328E+00 -0.38160E+00
 C  0.19398E+00  0.53334E+00  0.82336E+00
 NON BONDING WANNIER FUNCTION
 DISTANCE CENTROID-ATOM    3(  0  0  0) :   0.10216E+00
 ATOMIC POPULATION DATA:
  3 ZN(  0  0  0)  1.0000
 A.O. POPULATIONS OF ATOM    3(  0  0  0):
  -0.0063   0.2657  -0.0035  -0.0063   0.0004  -0.0001  -0.0000  -0.0000
  -0.0000   0.0280   0.2183   0.5243  -0.0008  -0.0059  -0.0141   0.0000
   0.0000   0.0001   0.0000   0.0000   0.0000   0.0000   0.0000   0.0000
   0.0000   0.0000   0.0000   0.0000   0.0000   0.0000   0.0000   0.0000
   0.0000
~~~~~~~~~~~~~~~~~~~~~~~~~~~~~~~~~~~~~~~~~~~~~~~~~~~~~~~~~~~~~~~~~~~~~~~~~~~~~~~~
 WANNIER NUMBER   10 ATOMIC EXTENT  1.0000
 CENTROID'S COORDINATES R0:   -0.39581E+01    0.25573E+01    0.38610E+01
 EXPECTATION VALUE OF (R-R0)**2:  0.41907E-01
 SECOND ORDER TENSOR IN CARTESIAN AXES:
         X             Y             Z
 X  0.12616E-01 -0.16782E-03 -0.63843E-03
 Y -0.16782E-03  0.12787E-01  0.10551E-02
 Z -0.63843E-03  0.10551E-02  0.16504E-01
 TENSOR EIGENVALUES:
 A  0.12514E-01  B  0.12508E-01  C  0.16884E-01
 PRINCIPAL AXES:
         X             Y             Z
 A  0.98084E+00  0.15691E+00  0.11547E+00
 B -0.12079E+00  0.95484E+00 -0.27145E+00
 C -0.15285E+00  0.25230E+00  0.95550E+00
 NON BONDING WANNIER FUNCTION
 DISTANCE CENTROID-ATOM    4(  0  0  0) :   0.10215E+00
 ATOMIC POPULATION DATA:
  4 ZN(  0  0  0)  1.0000
 A.O. POPULATIONS OF ATOM    4(  0  0  0):
  -0.0063   0.2657  -0.0035  -0.0062   0.0003  -0.0001  -0.0000  -0.0000
  -0.0000   0.0184   0.0475   0.7049  -0.0005  -0.0013  -0.0191   0.0000
   0.0000   0.0001   0.0000   0.0000   0.0000   0.0000   0.0000   0.0000
   0.0000   0.0000   0.0000   0.0000   0.0000   0.0000   0.0000   0.0000
   0.0000
~~~~~~~~~~~~~~~~~~~~~~~~~~~~~~~~~~~~~~~~~~~~~~~~~~~~~~~~~~~~~~~~~~~~~~~~~~~~~~~~
 WANNIER NUMBER   11 ATOMIC EXTENT  0.9999
 CENTROID'S COORDINATES R0:   -0.39739E+01   -0.21587E+00   -0.45760E+01
 EXPECTATION VALUE OF (R-R0)**2:  0.45492E-01
 SECOND ORDER TENSOR IN CARTESIAN AXES:
         X             Y             Z
 X  0.15070E-01 -0.68300E-06  0.11476E-06
 Y -0.68300E-06  0.15215E-01 -0.80330E-04
 Z  0.11476E-06 -0.80330E-04  0.15207E-01
 TENSOR EIGENVALUES:
 A  0.15070E-01  B  0.15292E-01  C  0.15131E-01
 PRINCIPAL AXES:
         X             Y             Z
 A  0.99998E+00  0.62362E-02  0.28137E-02
 B -0.25886E-02  0.72556E+00 -0.68815E+00
 C -0.63330E-02  0.68813E+00  0.72556E+00
 NON BONDING WANNIER FUNCTION
 DISTANCE CENTROID-ATOM   11(  0  0  0) :   0.29416E-04
 ATOMIC POPULATION DATA:
 11 F (  0  0  0)  1.0000
 A.O. POPULATIONS OF ATOM   11(  0  0  0):
   0.3814   0.6289   0.0029  -0.0117  -0.0016   0.0000   0.0000   0.0000
   0.0000   0.0000   0.0000   0.0000   0.0000   0.0000   0.0000   0.0000
   0.0000   0.0000   0.0000
~~~~~~~~~~~~~~~~~~~~~~~~~~~~~~~~~~~~~~~~~~~~~~~~~~~~~~~~~~~~~~~~~~~~~~~~~~~~~~~~
 WANNIER NUMBER   12 ATOMIC EXTENT  0.9999
 CENTROID'S COORDINATES R0:   -0.39739E+01    0.21587E+00    0.96559E+00
 EXPECTATION VALUE OF (R-R0)**2:  0.45490E-01
 SECOND ORDER TENSOR IN CARTESIAN AXES:
         X             Y             Z
 X  0.15068E-01 -0.62221E-06  0.12367E-06
 Y -0.62221E-06  0.15214E-01  0.82522E-04
 Z  0.12367E-06  0.82522E-04  0.15208E-01
 TENSOR EIGENVALUES:
 A  0.15068E-01  B  0.15294E-01  C  0.15129E-01
 PRINCIPAL AXES:
         X             Y             Z
 A  0.99996E+00  0.71445E-02 -0.50841E-02
 B -0.16014E-02  0.71883E+00  0.69519E+00
 C  0.86213E-02 -0.69515E+00  0.71881E+00
 NON BONDING WANNIER FUNCTION
 DISTANCE CENTROID-ATOM   12(  0  0  0) :   0.29177E-04
 ATOMIC POPULATION DATA:
 12 F (  0  0  0)  1.0000
 A.O. POPULATIONS OF ATOM   12(  0  0  0):
   0.3814   0.6289   0.0029  -0.0117  -0.0016   0.0000   0.0000   0.0000
   0.0000   0.0000   0.0000   0.0000   0.0000   0.0000   0.0000   0.0000
   0.0000   0.0000   0.0000
~~~~~~~~~~~~~~~~~~~~~~~~~~~~~~~~~~~~~~~~~~~~~~~~~~~~~~~~~~~~~~~~~~~~~~~~~~~~~~~~
 WANNIER NUMBER   13 ATOMIC EXTENT  1.0000
 CENTROID'S COORDINATES R0:   -0.39739E+01   -0.50827E+01    0.12466E+01
 EXPECTATION VALUE OF (R-R0)**2:  0.45399E-01
 SECOND ORDER TENSOR IN CARTESIAN AXES:
         X             Y             Z
 X  0.15125E-01  0.16078E-05  0.19989E-05
 Y  0.16078E-05  0.15120E-01 -0.10976E-04
 Z  0.19989E-05 -0.10976E-04  0.15154E-01
 TENSOR EIGENVALUES:
 A  0.15125E-01  B  0.15116E-01  C  0.15157E-01
 PRINCIPAL AXES:
         X             Y             Z
 A  0.96658E+00  0.25461E+00  0.29828E-01
 B -0.25242E+00  0.92502E+00  0.28394E+00
 C  0.44704E-01 -0.28199E+00  0.95838E+00
 NON BONDING WANNIER FUNCTION
 DISTANCE CENTROID-ATOM    7(  0  0  0) :   0.98484E-04
 ATOMIC POPULATION DATA:
  7 F (  0  0  0)  1.0000
 A.O. POPULATIONS OF ATOM    7(  0  0  0):
   0.3815   0.6290   0.0028  -0.0117  -0.0017   0.0000   0.0000   0.0000
   0.0000   0.0000   0.0000   0.0000   0.0000   0.0000   0.0000   0.0000
   0.0000  -0.0000   0.0000
~~~~~~~~~~~~~~~~~~~~~~~~~~~~~~~~~~~~~~~~~~~~~~~~~~~~~~~~~~~~~~~~~~~~~~~~~~~~~~~~
 WANNIER NUMBER   14 ATOMIC EXTENT  1.0000
 CENTROID'S COORDINATES R0:   -0.39739E+01    0.50827E+01   -0.42950E+01
 EXPECTATION VALUE OF (R-R0)**2:  0.45395E-01
 SECOND ORDER TENSOR IN CARTESIAN AXES:
         X             Y             Z
 X  0.15125E-01 -0.12549E-05  0.22464E-05
 Y -0.12549E-05  0.15119E-01  0.87679E-05
 Z  0.22464E-05  0.87679E-05  0.15151E-01
 TENSOR EIGENVALUES:
 A  0.15125E-01  B  0.15116E-01  C  0.15153E-01
 PRINCIPAL AXES:
         X             Y             Z
 A  0.97745E+00 -0.21071E+00 -0.13487E-01
 B  0.20065E+00  0.94685E+00 -0.25143E+00
 C  0.65750E-01  0.24306E+00  0.96778E+00
 NON BONDING WANNIER FUNCTION
 DISTANCE CENTROID-ATOM    8(  0  0  0) :   0.99278E-04
 ATOMIC POPULATION DATA:
  8 F (  0  0  0)  1.0000
 A.O. POPULATIONS OF ATOM    8(  0  0  0):
   0.3815   0.6290   0.0028  -0.0117  -0.0017   0.0000   0.0000   0.0000
   0.0000   0.0000   0.0000   0.0000   0.0000   0.0000   0.0000   0.0000
   0.0000  -0.0000   0.0000
~~~~~~~~~~~~~~~~~~~~~~~~~~~~~~~~~~~~~~~~~~~~~~~~~~~~~~~~~~~~~~~~~~~~~~~~~~~~~~~~
 WANNIER NUMBER   15 ATOMIC EXTENT  1.0000
 CENTROID'S COORDINATES R0:   -0.59005E-05    0.22410E+01    0.39163E+01
 EXPECTATION VALUE OF (R-R0)**2:  0.45428E-01
 SECOND ORDER TENSOR IN CARTESIAN AXES:
         X             Y             Z
 X  0.15260E-01  0.31739E-05  0.57460E-05
 Y  0.31739E-05  0.15072E-01  0.62590E-05
 Z  0.57460E-05  0.62590E-05  0.15096E-01
 TENSOR EIGENVALUES:
 A  0.15260E-01  B  0.15071E-01  C  0.15097E-01
 PRINCIPAL AXES:
         X             Y             Z
 A  0.99920E+00  0.18106E-01  0.35730E-01
 B -0.90511E-02  0.97100E+00 -0.23892E+00
 C -0.39020E-01  0.23841E+00  0.97038E+00
 NON BONDING WANNIER FUNCTION
 DISTANCE CENTROID-ATOM    9(  0  0  0) :   0.38775E-04
 ATOMIC POPULATION DATA:
  9 F (  0  0  0)  1.0000
 A.O. POPULATIONS OF ATOM    9(  0  0  0):
   0.3815   0.6290   0.0028  -0.0117  -0.0016   0.0000   0.0000   0.0000
   0.0000   0.0000   0.0000   0.0000   0.0000   0.0000   0.0000  -0.0000
   0.0000   0.0000   0.0000
~~~~~~~~~~~~~~~~~~~~~~~~~~~~~~~~~~~~~~~~~~~~~~~~~~~~~~~~~~~~~~~~~~~~~~~~~~~~~~~~
 WANNIER NUMBER   16 ATOMIC EXTENT  1.0000
 CENTROID'S COORDINATES R0:   -0.18565E-06   -0.22410E+01   -0.16253E+01
 EXPECTATION VALUE OF (R-R0)**2:  0.45431E-01
 SECOND ORDER TENSOR IN CARTESIAN AXES:
         X             Y             Z
 X  0.15259E-01 -0.13910E-06  0.67175E-06
 Y -0.13910E-06  0.15073E-01 -0.56183E-05
 Z  0.67175E-06 -0.56183E-05  0.15099E-01
 TENSOR EIGENVALUES:
 A  0.15259E-01  B  0.15072E-01  C  0.15100E-01
 PRINCIPAL AXES:
         X             Y             Z
 A  0.99999E+00 -0.87074E-03  0.42455E-02
 B  0.00000E+00  0.97961E+00  0.20092E+00
 C -0.43338E-02 -0.20091E+00  0.97960E+00
 NON BONDING WANNIER FUNCTION
 DISTANCE CENTROID-ATOM   10(  0  0  0) :   0.38654E-04
 ATOMIC POPULATION DATA:
 10 F (  0  0  0)  1.0000
 A.O. POPULATIONS OF ATOM   10(  0  0  0):
   0.3815   0.6290   0.0028  -0.0117  -0.0016   0.0000   0.0000   0.0000
   0.0000   0.0000   0.0000   0.0000   0.0000   0.0000   0.0000   0.0000
   0.0000   0.0000  -0.0000
~~~~~~~~~~~~~~~~~~~~~~~~~~~~~~~~~~~~~~~~~~~~~~~~~~~~~~~~~~~~~~~~~~~~~~~~~~~~~~~~
 WANNIER NUMBER   17 ATOMIC EXTENT  1.0000
 CENTROID'S COORDINATES R0:   -0.39739E+01   -0.53046E+01   -0.42161E+01
 EXPECTATION VALUE OF (R-R0)**2:  0.45390E-01
 SECOND ORDER TENSOR IN CARTESIAN AXES:
         X             Y             Z
 X  0.15116E-01  0.49492E-06  0.38472E-06
 Y  0.49492E-06  0.15133E-01  0.43267E-05
 Z  0.38472E-06  0.43267E-05  0.15142E-01
 TENSOR EIGENVALUES:
 A  0.15116E-01  B  0.15131E-01  C  0.15144E-01
 PRINCIPAL AXES:
         X             Y             Z
 A  0.99960E+00 -0.26526E-01 -0.10203E-01
 B  0.21010E-01  0.93145E+00 -0.36326E+00
 C  0.19140E-01  0.36290E+00  0.93163E+00
 NON BONDING WANNIER FUNCTION
 DISTANCE CENTROID-ATOM    5(  0  0  0) :   0.98171E-04
 ATOMIC POPULATION DATA:
  5 F (  0  0  0)  1.0000
 A.O. POPULATIONS OF ATOM    5(  0  0  0):
   0.3815   0.6290   0.0028  -0.0117  -0.0017   0.0000   0.0000   0.0000
   0.0000   0.0000   0.0000   0.0000   0.0000   0.0000   0.0000  -0.0000
  -0.0000   0.0000   0.0000
~~~~~~~~~~~~~~~~~~~~~~~~~~~~~~~~~~~~~~~~~~~~~~~~~~~~~~~~~~~~~~~~~~~~~~~~~~~~~~~~
 WANNIER NUMBER   18 ATOMIC EXTENT  1.0000
 CENTROID'S COORDINATES R0:   -0.39739E+01    0.53046E+01    0.13255E+01
 EXPECTATION VALUE OF (R-R0)**2:  0.45393E-01
 SECOND ORDER TENSOR IN CARTESIAN AXES:
         X             Y             Z
 X  0.15118E-01 -0.16440E-05 -0.13941E-05
 Y -0.16440E-05  0.15133E-01 -0.31873E-05
 Z -0.13941E-05 -0.31873E-05  0.15141E-01
 TENSOR EIGENVALUES:
 A  0.15118E-01  B  0.15132E-01  C  0.15142E-01
 PRINCIPAL AXES:
         X             Y             Z
 A  0.98880E+00  0.12803E+00  0.76677E-01
 B -0.14523E+00  0.94377E+00  0.29698E+00
 C -0.34344E-01 -0.30479E+00  0.95180E+00
 NON BONDING WANNIER FUNCTION
 DISTANCE CENTROID-ATOM    6(  0  0  0) :   0.98348E-04
 ATOMIC POPULATION DATA:
  6 F (  0  0  0)  1.0000
 A.O. POPULATIONS OF ATOM    6(  0  0  0):
   0.3815   0.6290   0.0028  -0.0117  -0.0017   0.0000   0.0000   0.0000
   0.0000   0.0000   0.0000   0.0000   0.0000   0.0000   0.0000   0.0000
  -0.0000   0.0000   0.0000
~~~~~~~~~~~~~~~~~~~~~~~~~~~~~~~~~~~~~~~~~~~~~~~~~~~~~~~~~~~~~~~~~~~~~~~~~~~~~~~~
 WANNIER NUMBER   19 ATOMIC EXTENT  1.0000
 CENTROID'S COORDINATES R0:   -0.40618E+01   -0.25511E+01   -0.16243E+01
 EXPECTATION VALUE OF (R-R0)**2:  0.41814E-01
 SECOND ORDER TENSOR IN CARTESIAN AXES:
         X             Y             Z
 X  0.15700E-01 -0.11472E-02  0.15162E-02
 Y -0.11472E-02  0.12920E-01 -0.57353E-03
 Z  0.15162E-02 -0.57353E-03  0.13194E-01
 TENSOR EIGENVALUES:
 A  0.16834E-01  B  0.12521E-01  C  0.12459E-01
 PRINCIPAL AXES:
         X             Y             Z
 A  0.85884E+00 -0.31136E+00  0.40675E+00
 B  0.47645E+00  0.77716E+00 -0.41112E+00
 C -0.18810E+00  0.54688E+00  0.81581E+00
 NON BONDING WANNIER FUNCTION
 DISTANCE CENTROID-ATOM    3(  0  0  0) :   0.10214E+00
 ATOMIC POPULATION DATA:
  3 ZN(  0  0  0)  1.0000
 A.O. POPULATIONS OF ATOM    3(  0  0  0):
  -0.0063   0.2657  -0.0035  -0.0063   0.0003  -0.0001  -0.0000  -0.0000
  -0.0000   0.5704   0.0739   0.1264  -0.0153  -0.0020  -0.0034   0.0001
   0.0000   0.0000   0.0000   0.0000   0.0000   0.0000   0.0000   0.0000
   0.0000   0.0000   0.0000   0.0000  -0.0000   0.0000   0.0000   0.0000
   0.0000
~~~~~~~~~~~~~~~~~~~~~~~~~~~~~~~~~~~~~~~~~~~~~~~~~~~~~~~~~~~~~~~~~~~~~~~~~~~~~~~~
 WANNIER NUMBER   20 ATOMIC EXTENT  1.0000
 CENTROID'S COORDINATES R0:   -0.39759E+01    0.26845E+01    0.39676E+01
 EXPECTATION VALUE OF (R-R0)**2:  0.41815E-01
 SECOND ORDER TENSOR IN CARTESIAN AXES:
         X             Y             Z
 X  0.12502E-01 -0.81117E-04 -0.42903E-05
 Y -0.81117E-04  0.16756E-01  0.33045E-03
 Z -0.42903E-05  0.33045E-03  0.12557E-01
 TENSOR EIGENVALUES:
 A  0.12500E-01  B  0.16784E-01  C  0.12531E-01
 PRINCIPAL AXES:
         X             Y             Z
 A  0.99758E+00  0.24076E-01 -0.65187E-01
 B -0.18963E-01  0.99678E+00  0.77945E-01
 C  0.66854E-01 -0.76521E-01  0.99482E+00
 NON BONDING WANNIER FUNCTION
 DISTANCE CENTROID-ATOM    4(  0  0  0) :   0.10219E+00
 ATOMIC POPULATION DATA:
  4 ZN(  0  0  0)  1.0000
 A.O. POPULATIONS OF ATOM    4(  0  0  0):
  -0.0063   0.2659  -0.0035  -0.0063   0.0004  -0.0001   0.0000  -0.0000
  -0.0000   0.0003   0.7643   0.0058  -0.0000  -0.0205  -0.0002   0.0000
   0.0001   0.0000   0.0000   0.0000   0.0000   0.0000   0.0000   0.0000
   0.0000   0.0000   0.0000   0.0000   0.0000   0.0000   0.0000   0.0000
   0.0000
~~~~~~~~~~~~~~~~~~~~~~~~~~~~~~~~~~~~~~~~~~~~~~~~~~~~~~~~~~~~~~~~~~~~~~~~~~~~~~~~
 WANNIER NUMBER   21 ATOMIC EXTENT  0.9989
 CENTROID'S COORDINATES R0:   -0.43485E+01   -0.23099E+01   -0.14219E+01
 EXPECTATION VALUE OF (R-R0)**2:  0.59158E+00
 SECOND ORDER TENSOR IN CARTESIAN AXES:
         X             Y             Z
 X  0.23474E+00 -0.51348E-01 -0.38253E-01
 Y -0.51348E-01  0.20099E+00  0.21633E-01
 Z -0.38253E-01  0.21633E-01  0.15585E+00
 TENSOR EIGENVALUES:
 A  0.28653E+00  B  0.16472E+00  C  0.14033E+00
 PRINCIPAL AXES:
         X             Y             Z
 A  0.77551E+00 -0.54577E+00 -0.31736E+00
 B  0.51555E+00  0.83760E+00 -0.18063E+00
 C  0.36441E+00 -0.23541E-01  0.93094E+00
 NON BONDING WANNIER FUNCTION
 DISTANCE CENTROID-ATOM    3(  0  0  0) :   0.49053E+00
 ATOMIC POPULATION DATA:
  3 ZN(  0  0  0)  1.0005
 A.O. POPULATIONS OF ATOM    3(  0  0  0):
  -0.0001  -0.0043   0.0694   0.0491   0.0016   0.0008  -0.0002   0.0001
   0.0001  -0.0062  -0.0032  -0.0010   0.1719   0.0891   0.0280   0.0429
   0.0222   0.0071   0.0189   0.0375   0.0388   0.0227   0.1736   0.0112
   0.0225   0.0229   0.0135   0.1043   0.0041   0.0090   0.0082   0.0048
   0.0412
~~~~~~~~~~~~~~~~~~~~~~~~~~~~~~~~~~~~~~~~~~~~~~~~~~~~~~~~~~~~~~~~~~~~~~~~~~~~~~~~
 WANNIER NUMBER   22 ATOMIC EXTENT  1.0000
 CENTROID'S COORDINATES R0:   -0.40631E+01    0.25440E+01    0.39899E+01
 EXPECTATION VALUE OF (R-R0)**2:  0.41807E-01
 SECOND ORDER TENSOR IN CARTESIAN AXES:
         X             Y             Z
 X  0.15815E-01  0.14341E-02 -0.11406E-02
 Y  0.14341E-02  0.13073E-01 -0.51022E-03
 Z -0.11406E-02 -0.51022E-03  0.12919E-01
 TENSOR EIGENVALUES:
 A  0.16827E-01  B  0.12454E-01  C  0.12526E-01
 PRINCIPAL AXES:
         X             Y             Z
 A  0.87531E+00  0.37568E+00 -0.30448E+00
 B -0.29641E+00  0.91431E+00  0.27601E+00
 C  0.38208E+00 -0.15134E+00  0.91165E+00
 NON BONDING WANNIER FUNCTION
 DISTANCE CENTROID-ATOM    4(  0  0  0) :   0.10215E+00
 ATOMIC POPULATION DATA:
  4 ZN(  0  0  0)  1.0000
 A.O. POPULATIONS OF ATOM    4(  0  0  0):
  -0.0063   0.2657  -0.0035  -0.0063   0.0003  -0.0001  -0.0000  -0.0000
  -0.0000   0.5882   0.1104   0.0720  -0.0158  -0.0030  -0.0019   0.0001
   0.0000   0.0000   0.0000   0.0000   0.0000   0.0000   0.0000   0.0000
   0.0000   0.0000   0.0000   0.0000   0.0000   0.0000   0.0000   0.0000
   0.0000
~~~~~~~~~~~~~~~~~~~~~~~~~~~~~~~~~~~~~~~~~~~~~~~~~~~~~~~~~~~~~~~~~~~~~~~~~~~~~~~~
 WANNIER NUMBER   23 ATOMIC EXTENT  0.9989
 CENTROID'S COORDINATES R0:   -0.36910E+01    0.22136E+01    0.41113E+01
 EXPECTATION VALUE OF (R-R0)**2:  0.59427E+00
 SECOND ORDER TENSOR IN CARTESIAN AXES:
         X             Y             Z
 X  0.19883E+00 -0.59782E-01  0.10859E-01
 Y -0.59782E-01  0.22213E+00 -0.39674E-01
 Z  0.10859E-01 -0.39674E-01  0.17331E+00
 TENSOR EIGENVALUES:
 A  0.13807E+00  B  0.28432E+00  C  0.17188E+00
 PRINCIPAL AXES:
         X             Y             Z
 A  0.52984E+00  0.63965E+00  0.55688E+00
 B -0.56928E+00  0.75495E+00 -0.32551E+00
 C -0.62864E+00 -0.14456E+00  0.76415E+00
 NON BONDING WANNIER FUNCTION
 DISTANCE CENTROID-ATOM    4(  0  0  0) :   0.48948E+00
 ATOMIC POPULATION DATA:
  4 ZN(  0  0  0)  1.0005
 A.O. POPULATIONS OF ATOM    4(  0  0  0):
  -0.0001  -0.0043   0.0703   0.0498   0.0013   0.0001  -0.0001   0.0003
  -0.0000  -0.0035  -0.0058  -0.0010   0.0999   0.1576   0.0295   0.0250
   0.0394   0.0074   0.0462   0.0489   0.0354   0.0157   0.1454   0.0277
   0.0294   0.0209   0.0094   0.0874   0.0110   0.0117   0.0074   0.0037
   0.0346
~~~~~~~~~~~~~~~~~~~~~~~~~~~~~~~~~~~~~~~~~~~~~~~~~~~~~~~~~~~~~~~~~~~~~~~~~~~~~~~~
 WANNIER NUMBER   24 ATOMIC EXTENT  1.0000
 CENTROID'S COORDINATES R0:   -0.39814E+01   -0.26816E+01   -0.15586E+01
 EXPECTATION VALUE OF (R-R0)**2:  0.41858E-01
 SECOND ORDER TENSOR IN CARTESIAN AXES:
         X             Y             Z
 X  0.12517E-01  0.30396E-03 -0.68434E-04
 Y  0.30396E-03  0.16576E-01 -0.10129E-02
 Z -0.68434E-04 -0.10129E-02  0.12764E-01
 TENSOR EIGENVALUES:
 A  0.12492E-01  B  0.16851E-01  C  0.12514E-01
 PRINCIPAL AXES:
         X             Y             Z
 A  0.93848E+00 -0.14731E+00 -0.31234E+00
 B  0.71688E-01  0.96786E+00 -0.24108E+00
 C  0.33782E+00  0.20385E+00  0.91887E+00
 NON BONDING WANNIER FUNCTION
 DISTANCE CENTROID-ATOM    3(  0  0  0) :   0.10214E+00
 ATOMIC POPULATION DATA:
  3 ZN(  0  0  0)  1.0000
 A.O. POPULATIONS OF ATOM    3(  0  0  0):
  -0.0063   0.2657  -0.0035  -0.0063   0.0004  -0.0001  -0.0000  -0.0000
  -0.0000   0.0041   0.7230   0.0436  -0.0001  -0.0195  -0.0012   0.0000
   0.0001   0.0000   0.0000   0.0000   0.0000   0.0000   0.0000   0.0000
   0.0000   0.0000   0.0000   0.0000   0.0000   0.0000   0.0000   0.0000
   0.0000
~~~~~~~~~~~~~~~~~~~~~~~~~~~~~~~~~~~~~~~~~~~~~~~~~~~~~~~~~~~~~~~~~~~~~~~~~~~~~~~~
 WANNIER NUMBER   25 ATOMIC EXTENT  0.9997
 CENTROID'S COORDINATES R0:   -0.36123E+01   -0.25509E+01   -0.19121E+01
 EXPECTATION VALUE OF (R-R0)**2:  0.59686E+00
 SECOND ORDER TENSOR IN CARTESIAN AXES:
         X             Y             Z
 X  0.22975E+00 -0.22650E-02 -0.67217E-01
 Y -0.22650E-02  0.15190E+00 -0.16822E-01
 Z -0.67217E-01 -0.16822E-01  0.21520E+00
 TENSOR EIGENVALUES:
 A  0.29075E+00  B  0.13894E+00  C  0.16717E+00
 PRINCIPAL AXES:
         X             Y             Z
 A  0.73759E+00  0.69343E-01 -0.67168E+00
 B  0.40581E+00  0.74952E+00  0.52301E+00
 C  0.53971E+00 -0.65834E+00  0.52470E+00
 NON BONDING WANNIER FUNCTION
 DISTANCE CENTROID-ATOM    3(  0  0  0) :   0.49007E+00
 ATOMIC POPULATION DATA:
  3 ZN(  0  0  0)  1.0001
 A.O. POPULATIONS OF ATOM    3(  0  0  0):
  -0.0001  -0.0042   0.0695   0.0492   0.0016   0.0007   0.0002  -0.0000
   0.0002  -0.0056  -0.0001  -0.0045   0.1587   0.0018   0.1259   0.0398
   0.0004   0.0315   0.0096   0.2117   0.0002   0.0609   0.0087   0.0058
   0.1272   0.0001   0.0364   0.0052   0.0025   0.0508   0.0001   0.0138
   0.0020
~~~~~~~~~~~~~~~~~~~~~~~~~~~~~~~~~~~~~~~~~~~~~~~~~~~~~~~~~~~~~~~~~~~~~~~~~~~~~~~~
 WANNIER NUMBER   26 ATOMIC EXTENT  0.9979
 CENTROID'S COORDINATES R0:   -0.40183E+01    0.25184E+01    0.44107E+01
 EXPECTATION VALUE OF (R-R0)**2:  0.65328E+00
 SECOND ORDER TENSOR IN CARTESIAN AXES:
         X             Y             Z
 X  0.14570E+00  0.19064E-02 -0.16224E-01
 Y  0.19064E-02  0.19645E+00 -0.17889E-01
 Z -0.16224E-01 -0.17889E-01  0.31113E+00
 TENSOR EIGENVALUES:
 A  0.14413E+00  B  0.19373E+00  C  0.31543E+00
 PRINCIPAL AXES:
         X             Y             Z
 A  0.99534E+00 -0.33288E-02  0.96335E-01
 B -0.11126E-01  0.98876E+00  0.14912E+00
 C -0.95748E-01 -0.14950E+00  0.98412E+00
 NON BONDING WANNIER FUNCTION
 DISTANCE CENTROID-ATOM    4(  0  0  0) :   0.45870E+00
 ATOMIC POPULATION DATA:
  4 ZN(  0  0  0)  1.0011
 A.O. POPULATIONS OF ATOM    4(  0  0  0):
  -0.0000  -0.0038   0.0605   0.0425   0.0011  -0.0011  -0.0000   0.0000
   0.0008  -0.0001  -0.0002  -0.0090   0.0023   0.0049   0.2402   0.0006
   0.0012   0.0598   0.2917   0.0071   0.0222   0.0065   0.0002   0.1748
   0.0043   0.0132   0.0040   0.0001   0.0685   0.0017   0.0050   0.0019
   0.0000
~~~~~~~~~~~~~~~~~~~~~~~~~~~~~~~~~~~~~~~~~~~~~~~~~~~~~~~~~~~~~~~~~~~~~~~~~~~~~~~~
 WANNIER NUMBER   27 ATOMIC EXTENT  0.9913
 CENTROID'S COORDINATES R0:    0.10295E+00    0.36629E+01   -0.23106E+01
 EXPECTATION VALUE OF (R-R0)**2:  0.31695E+01
 SECOND ORDER TENSOR IN CARTESIAN AXES:
         X             Y             Z
 X  0.89759E+00 -0.17948E-01 -0.54213E-01
 Y -0.17948E-01  0.92785E+00  0.12867E+00
 Z -0.54213E-01  0.12867E+00  0.13441E+01
 TENSOR EIGENVALUES:
 A  0.88868E+00  B  0.89355E+00  C  0.13873E+01
 PRINCIPAL AXES:
         X             Y             Z
 A  0.72656E+00  0.67898E+00 -0.10535E+00
 B -0.67729E+00  0.68189E+00 -0.27625E+00
 C -0.11574E+00  0.27206E+00  0.95529E+00
 NON BONDING WANNIER FUNCTION
 DISTANCE CENTROID-ATOM    1(  0  0  0) :   0.88908E+00
 ATOMIC POPULATION DATA:
  1 BA(  0  0  0)  1.0044
 A.O. POPULATIONS OF ATOM    1(  0  0  0):
   0.0328   0.2121  -0.0008   0.0016   0.0103   0.1086   0.0086   0.0514
   0.5797  -0.0000   0.0000   0.0000   0.0000   0.0000  -0.0000   0.0000
   0.0002   0.0000   0.0000
~~~~~~~~~~~~~~~~~~~~~~~~~~~~~~~~~~~~~~~~~~~~~~~~~~~~~~~~~~~~~~~~~~~~~~~~~~~~~~~~
 WANNIER NUMBER   28 ATOMIC EXTENT  0.9878
 CENTROID'S COORDINATES R0:   -0.72008E+00   -0.35898E+01    0.44614E+01
 EXPECTATION VALUE OF (R-R0)**2:  0.31509E+01
 SECOND ORDER TENSOR IN CARTESIAN AXES:
         X             Y             Z
 X  0.12118E+01 -0.14465E+00 -0.17332E+00
 Y -0.14465E+00  0.95264E+00  0.75989E-01
 Z -0.17332E+00  0.75989E-01  0.98643E+00
 TENSOR EIGENVALUES:
 A  0.13698E+01  B  0.88775E+00  C  0.89328E+00
 PRINCIPAL AXES:
         X             Y             Z
 A  0.81921E+00 -0.36467E+00 -0.44263E+00
 B  0.48574E+00  0.85150E+00  0.19747E+00
 C  0.30489E+00 -0.37677E+00  0.87469E+00
 NON BONDING WANNIER FUNCTION
 DISTANCE CENTROID-ATOM    2(  0  0  0) :   0.88956E+00
 ATOMIC POPULATION DATA:
  2 BA(  0  0  0)  1.0061
 A.O. POPULATIONS OF ATOM    2(  0  0  0):
   0.0328   0.2125  -0.0016   0.0809   0.0168   0.0237   0.4282   0.0858
   0.1268   0.0000   0.0000   0.0000   0.0000   0.0000   0.0000   0.0000
   0.0000   0.0000   0.0002
~~~~~~~~~~~~~~~~~~~~~~~~~~~~~~~~~~~~~~~~~~~~~~~~~~~~~~~~~~~~~~~~~~~~~~~~~~~~~~~~
 WANNIER NUMBER   29 ATOMIC EXTENT  1.0324
 CENTROID'S COORDINATES R0:   -0.39754E+01    0.57977E+01    0.15589E+01
 EXPECTATION VALUE OF (R-R0)**2:  0.16537E+01
 SECOND ORDER TENSOR IN CARTESIAN AXES:
         X             Y             Z
 X  0.43060E+00 -0.25360E-03 -0.22856E-03
 Y -0.25360E-03  0.73645E+00  0.15606E+00
 Z -0.22856E-03  0.15606E+00  0.48669E+00
 TENSOR EIGENVALUES:
 A  0.43060E+00  B  0.81144E+00  C  0.41169E+00
 PRINCIPAL AXES:
         X             Y             Z
 A  0.99999E+00  0.29779E-02 -0.42109E-02
 B -0.86014E-03  0.90133E+00  0.43314E+00
 C  0.50852E-02 -0.43313E+00  0.90132E+00
 NON BONDING WANNIER FUNCTION
 DISTANCE CENTROID-ATOM    6(  0  0  0) :   0.54544E+00
 ATOMIC POPULATION DATA:
  6 F (  0  0  0)  0.9842
 A.O. POPULATIONS OF ATOM    6(  0  0  0):
   0.0014  -0.0085   0.0737   0.1199   0.0831   0.0000   0.1972   0.0410
   0.0000   0.1869   0.0382   0.0000   0.2088   0.0427   0.0000   0.0000
   0.0000   0.0000   0.0000
~~~~~~~~~~~~~~~~~~~~~~~~~~~~~~~~~~~~~~~~~~~~~~~~~~~~~~~~~~~~~~~~~~~~~~~~~~~~~~~~
 WANNIER NUMBER   30 ATOMIC EXTENT  1.0347
 CENTROID'S COORDINATES R0:   -0.44016E+01   -0.45747E+00   -0.47785E+01
 EXPECTATION VALUE OF (R-R0)**2:  0.15810E+01
 SECOND ORDER TENSOR IN CARTESIAN AXES:
         X             Y             Z
 X  0.61214E+00  0.13693E+00  0.10926E+00
 Y  0.13693E+00  0.50198E+00  0.53887E-01
 Z  0.10926E+00  0.53887E-01  0.46684E+00
 TENSOR EIGENVALUES:
 A  0.75530E+00  B  0.39721E+00  C  0.42846E+00
 PRINCIPAL AXES:
         X             Y             Z
 A  0.77429E+00  0.50084E+00  0.38683E+00
 B -0.62649E+00  0.52027E+00  0.58038E+00
 C  0.89419E-01 -0.69172E+00  0.71660E+00
 NON BONDING WANNIER FUNCTION
 DISTANCE CENTROID-ATOM   11(  0  0  0) :   0.53126E+00
 ATOMIC POPULATION DATA:
 11 F (  0  0  0)  0.9831
 A.O. POPULATIONS OF ATOM   11(  0  0  0):
   0.0010  -0.0076   0.0641   0.1053   0.0738   0.1578   0.0507   0.0354
   0.1547   0.0484   0.0344   0.1729   0.0539   0.0383   0.0000   0.0000
   0.0000   0.0000   0.0000
~~~~~~~~~~~~~~~~~~~~~~~~~~~~~~~~~~~~~~~~~~~~~~~~~~~~~~~~~~~~~~~~~~~~~~~~~~~~~~~~
 WANNIER NUMBER   31 ATOMIC EXTENT  1.1234
 CENTROID'S COORDINATES R0:   -0.39791E+01    0.28966E+00    0.15265E+01
 EXPECTATION VALUE OF (R-R0)**2:  0.17006E+01
 SECOND ORDER TENSOR IN CARTESIAN AXES:
         X             Y             Z
 X  0.44381E+00 -0.42364E-05 -0.40581E-02
 Y -0.42364E-05  0.46867E+00  0.77700E-01
 Z -0.40581E-02  0.77700E-01  0.78814E+00
 TENSOR EIGENVALUES:
 A  0.44365E+00  B  0.45089E+00  C  0.80608E+00
 PRINCIPAL AXES:
         X             Y             Z
 A  0.99193E+00 -0.12066E+00  0.38901E-01
 B  0.12631E+00  0.96700E+00 -0.22127E+00
 C -0.10918E-01  0.22440E+00  0.97444E+00
 BONDING WANNIER FUNCTION BETWEEN ATOMS:
 A:  12 F (  0  0  0) X -0.397391E+01 Y  0.215890E+00 Z  0.965569E+00 (AU)
 B:   4 ZN(  0  0  0) X -0.397391E+01 Y  0.258269E+01 Z  0.395870E+01 (AU)
 DISTANCE OF THE CENTROID FROM THE ATOMS A,B AND FROM THE A-B BOND:
  0.56574E+00  0.33427E+01  0.29007E+00
 POLARISATION FRACTION (0: COVALENT; 1: VERY IONIC)  0.74542E+00
 ATOMIC POPULATION DATA:
  4 ZN(  0  0  0)  0.0490  12 F (  0  0  0)  0.9422
 A.O. POPULATIONS OF ATOM    4(  0  0  0):
  -0.0000   0.0000   0.0005  -0.0010   0.0017   0.0197   0.0000   0.0142
   0.0112  -0.0000  -0.0000  -0.0000   0.0000   0.0003   0.0003  -0.0000
  -0.0000   0.0000   0.0000   0.0000   0.0003   0.0000   0.0000  -0.0000
   0.0000  -0.0002  -0.0000   0.0000   0.0001  -0.0000   0.0014   0.0005
  -0.0000
 A.O. POPULATIONS OF ATOM   12(  0  0  0):
   0.0015  -0.0078   0.0682   0.1169   0.0755   0.0000   0.0011   0.2198
   0.0000   0.0017   0.2145   0.0000   0.0026   0.2481   0.0000   0.0000
   0.0000   0.0000  -0.0000
~~~~~~~~~~~~~~~~~~~~~~~~~~~~~~~~~~~~~~~~~~~~~~~~~~~~~~~~~~~~~~~~~~~~~~~~~~~~~~~~
 WANNIER NUMBER   32 ATOMIC EXTENT  1.0306
 CENTROID'S COORDINATES R0:   -0.39750E+01    0.55782E+01   -0.45079E+01
 EXPECTATION VALUE OF (R-R0)**2:  0.16347E+01
 SECOND ORDER TENSOR IN CARTESIAN AXES:
         X             Y             Z
 X  0.43001E+00  0.25560E-03  0.31605E-04
 Y  0.25560E-03  0.73047E+00 -0.13663E+00
 Z  0.31605E-04 -0.13663E+00  0.47426E+00
 TENSOR EIGENVALUES:
 A  0.43001E+00  B  0.78966E+00  C  0.41507E+00
 PRINCIPAL AXES:
         X             Y             Z
 A  0.99996E+00  0.29071E-02  0.82634E-02
 B  0.61721E-03  0.91760E+00 -0.39751E+00
 C -0.87381E-02  0.39750E+00  0.91756E+00
 NON BONDING WANNIER FUNCTION
 DISTANCE CENTROID-ATOM    8(  0  0  0) :   0.53926E+00
 ATOMIC POPULATION DATA:
  8 F (  0  0  0)  0.9850
 A.O. POPULATIONS OF ATOM    8(  0  0  0):
   0.0014  -0.0085   0.0730   0.1195   0.0815   0.0000   0.2047   0.0345
   0.0000   0.1939   0.0324   0.0000   0.2162   0.0364   0.0000   0.0000
  -0.0000   0.0000   0.0000
~~~~~~~~~~~~~~~~~~~~~~~~~~~~~~~~~~~~~~~~~~~~~~~~~~~~~~~~~~~~~~~~~~~~~~~~~~~~~~~~
 WANNIER NUMBER   33 ATOMIC EXTENT  1.0307
 CENTROID'S COORDINATES R0:   -0.39755E+01   -0.55782E+01    0.10332E+01
 EXPECTATION VALUE OF (R-R0)**2:  0.16340E+01
 SECOND ORDER TENSOR IN CARTESIAN AXES:
         X             Y             Z
 X  0.43016E+00  0.48819E-04  0.74935E-04
 Y  0.48819E-04  0.72963E+00  0.13706E+00
 Z  0.74935E-04  0.13706E+00  0.47423E+00
 TENSOR EIGENVALUES:
 A  0.43016E+00  B  0.78926E+00  C  0.41460E+00
 PRINCIPAL AXES:
         X             Y             Z
 A  0.99999E+00 -0.14532E-02  0.28189E-02
 B  0.20791E-03  0.91697E+00  0.39896E+00
 C -0.31646E-02 -0.39895E+00  0.91697E+00
 NON BONDING WANNIER FUNCTION
 DISTANCE CENTROID-ATOM    7(  0  0  0) :   0.53951E+00
 ATOMIC POPULATION DATA:
  7 F (  0  0  0)  0.9849
 A.O. POPULATIONS OF ATOM    7(  0  0  0):
   0.0014  -0.0085   0.0731   0.1196   0.0815   0.0000   0.2044   0.0348
   0.0000   0.1937   0.0326   0.0000   0.2159   0.0366   0.0000   0.0000
  -0.0000   0.0000   0.0000
~~~~~~~~~~~~~~~~~~~~~~~~~~~~~~~~~~~~~~~~~~~~~~~~~~~~~~~~~~~~~~~~~~~~~~~~~~~~~~~~
 WANNIER NUMBER   34 ATOMIC EXTENT  1.0341
 CENTROID'S COORDINATES R0:   -0.44302E+01   -0.52145E+01   -0.45238E+01
 EXPECTATION VALUE OF (R-R0)**2:  0.16807E+01
 SECOND ORDER TENSOR IN CARTESIAN AXES:
         X             Y             Z
 X  0.69218E+00 -0.54306E-01  0.19557E+00
 Y -0.54306E-01  0.43128E+00 -0.45867E-01
 Z  0.19557E+00 -0.45867E-01  0.55725E+00
 TENSOR EIGENVALUES:
 A  0.84377E+00  B  0.42425E+00  C  0.41270E+00
 PRINCIPAL AXES:
         X             Y             Z
 A  0.80118E+00 -0.16931E+00  0.57397E+00
 B  0.49105E+00  0.73419E+00 -0.46887E+00
 C -0.34202E+00  0.65750E+00  0.67135E+00
 NON BONDING WANNIER FUNCTION
 DISTANCE CENTROID-ATOM    5(  0  0  0) :   0.55763E+00
 ATOMIC POPULATION DATA:
  5 F (  0  0  0)  0.9833   2 BA( -1  1 -1)  0.0120
 A.O. POPULATIONS OF ATOM    5(  0  0  0):
   0.0013  -0.0080   0.0701   0.1072   0.0875   0.1608   0.0048   0.0745
   0.1537   0.0041   0.0707   0.1726   0.0046   0.0794   0.0000   0.0000
   0.0000  -0.0000   0.0000
 A.O. POPULATIONS OF ATOM    2( -1  1 -1):
  -0.0000  -0.0015   0.0057  -0.0009  -0.0001  -0.0004  -0.0004  -0.0001
  -0.0002   0.0000   0.0004   0.0001   0.0001   0.0001   0.0000   0.0050
   0.0007   0.0019   0.0015
~~~~~~~~~~~~~~~~~~~~~~~~~~~~~~~~~~~~~~~~~~~~~~~~~~~~~~~~~~~~~~~~~~~~~~~~~~~~~~~~
 WANNIER NUMBER   35 ATOMIC EXTENT  1.1261
 CENTROID'S COORDINATES R0:    0.48793E+00    0.24301E+01    0.41354E+01
 EXPECTATION VALUE OF (R-R0)**2:  0.17504E+01
 SECOND ORDER TENSOR IN CARTESIAN AXES:
         X             Y             Z
 X  0.77602E+00  0.90968E-01  0.10721E+00
 Y  0.90968E-01  0.46749E+00  0.37716E-01
 Z  0.10721E+00  0.37716E-01  0.50692E+00
 TENSOR EIGENVALUES:
 A  0.83950E+00  B  0.44050E+00  C  0.47043E+00
 PRINCIPAL AXES:
         X             Y             Z
 A  0.91133E+00  0.25557E+00  0.32275E+00
 B -0.17605E+00  0.95061E+00 -0.25564E+00
 C -0.37214E+00  0.17615E+00  0.91131E+00
 BONDING WANNIER FUNCTION BETWEEN ATOMS:
 A:   9 F (  0  0  0) X -0.159392E-16 Y  0.224096E+01 Z  0.391625E+01 (AU)
 B:   4 ZN(  1 -1  0) X  0.397391E+01 Y  0.258269E+01 Z  0.395870E+01 (AU)
 DISTANCE OF THE CENTROID FROM THE ATOMS A,B AND FROM THE A-B BOND:
  0.56737E+00  0.34938E+01  0.25930E+00
 POLARISATION FRACTION (0: COVALENT; 1: VERY IONIC)  0.74697E+00
 ATOMIC POPULATION DATA:
  9 F (  0  0  0)  0.9411   4 ZN(  1 -1  0)  0.0480
 A.O. POPULATIONS OF ATOM    9(  0  0  0):
   0.0015  -0.0078   0.0680   0.1142   0.0769   0.1568   0.0266   0.0383
   0.1539   0.0258   0.0366   0.1807   0.0288   0.0408   0.0000   0.0000
   0.0000   0.0000   0.0000
 A.O. POPULATIONS OF ATOM    4(  1 -1  0):
  -0.0000   0.0000   0.0001  -0.0009   0.0010   0.0185   0.0270  -0.0000
   0.0004   0.0000  -0.0000   0.0000   0.0002  -0.0000   0.0000   0.0000
   0.0000  -0.0000   0.0002   0.0000   0.0000   0.0006   0.0000  -0.0000
   0.0000   0.0000  -0.0000   0.0000   0.0001   0.0000  -0.0000   0.0006
  -0.0000
~~~~~~~~~~~~~~~~~~~~~~~~~~~~~~~~~~~~~~~~~~~~~~~~~~~~~~~~~~~~~~~~~~~~~~~~~~~~~~~~
 WANNIER NUMBER   36 ATOMIC EXTENT  1.0445
 CENTROID'S COORDINATES R0:   -0.19700E-02   -0.24167E+01   -0.21389E+01
 EXPECTATION VALUE OF (R-R0)**2:  0.16493E+01
 SECOND ORDER TENSOR IN CARTESIAN AXES:
         X             Y             Z
 X  0.43107E+00  0.48805E-03  0.11260E-02
 Y  0.48805E-03  0.43616E+00  0.10538E+00
 Z  0.11260E-02  0.10538E+00  0.78208E+00
 TENSOR EIGENVALUES:
 A  0.43107E+00  B  0.40658E+00  C  0.81166E+00
 PRINCIPAL AXES:
         X             Y             Z
 A  0.99997E+00  0.56507E-02 -0.49041E-02
 B -0.67655E-02  0.96279E+00 -0.27017E+00
 C  0.31949E-02  0.27020E+00  0.96280E+00
 ATOMIC POPULATION DATA:
 10 F (  0  0  0)  0.9784
 A.O. POPULATIONS OF ATOM   10(  0  0  0):
   0.0011  -0.0075   0.0635   0.1048   0.0728   0.0000   0.0241   0.2226
   0.0000   0.0233   0.2116   0.0000   0.0260   0.2361   0.0000  -0.0000
   0.0000   0.0000   0.0000
~~~~~~~~~~~~~~~~~~~~~~~~~~~~~~~~~~~~~~~~~~~~~~~~~~~~~~~~~~~~~~~~~~~~~~~~~~~~~~~~
 WANNIER NUMBER   37 ATOMIC EXTENT  0.9907
 CENTROID'S COORDINATES R0:    0.10302E-01   -0.36517E+01    0.32302E+01
 EXPECTATION VALUE OF (R-R0)**2:  0.31660E+01
 SECOND ORDER TENSOR IN CARTESIAN AXES:
         X             Y             Z
 X  0.88644E+00  0.20962E-02 -0.38778E-02
 Y  0.20962E-02  0.93127E+00 -0.13773E+00
 Z -0.38778E-02 -0.13773E+00  0.13483E+01
 TENSOR EIGENVALUES:
 A  0.88619E+00  B  0.89010E+00  C  0.13897E+01
 PRINCIPAL AXES:
         X             Y             Z
 A  0.97206E+00 -0.22707E+00 -0.59525E-01
 B  0.23459E+00  0.93039E+00  0.28167E+00
 C -0.85777E-02 -0.28777E+00  0.95766E+00
 NON BONDING WANNIER FUNCTION
 DISTANCE CENTROID-ATOM    2(  0  0  0) :   0.88741E+00
 ATOMIC POPULATION DATA:
  2 BA(  0  0  0)  1.0047
 A.O. POPULATIONS OF ATOM    2(  0  0  0):
   0.0330   0.2139  -0.0019   0.0000   0.0112   0.1095   0.0001   0.0561
   0.5824   0.0000   0.0000   0.0000   0.0000   0.0000   0.0000   0.0000
   0.0002   0.0000   0.0000
~~~~~~~~~~~~~~~~~~~~~~~~~~~~~~~~~~~~~~~~~~~~~~~~~~~~~~~~~~~~~~~~~~~~~~~~~~~~~~~~
 WANNIER NUMBER   38 ATOMIC EXTENT  0.9890
 CENTROID'S COORDINATES R0:    0.71709E+00   -0.35945E+01    0.44788E+01
 EXPECTATION VALUE OF (R-R0)**2:  0.31553E+01
 SECOND ORDER TENSOR IN CARTESIAN AXES:
         X             Y             Z
 X  0.12098E+01  0.14218E+00  0.18421E+00
 Y  0.14218E+00  0.94939E+00  0.78358E-01
 Z  0.18421E+00  0.78358E-01  0.99602E+00
 TENSOR EIGENVALUES:
 A  0.13775E+01  B  0.88586E+00  C  0.89193E+00
 PRINCIPAL AXES:
         X             Y             Z
 A  0.81140E+00  0.35455E+00  0.46468E+00
 B -0.53636E+00  0.76759E+00  0.35089E+00
 C -0.23227E+00 -0.53395E+00  0.81299E+00
 NON BONDING WANNIER FUNCTION
 DISTANCE CENTROID-ATOM    2(  0  0  0) :   0.89317E+00
 ATOMIC POPULATION DATA:
  2 BA(  0  0  0)  1.0055
 A.O. POPULATIONS OF ATOM    2(  0  0  0):
   0.0328   0.2120  -0.0008   0.0791   0.0162   0.0253   0.4208   0.0828
   0.1371   0.0000   0.0000   0.0000   0.0000   0.0000   0.0000   0.0000
   0.0000   0.0000   0.0002
~~~~~~~~~~~~~~~~~~~~~~~~~~~~~~~~~~~~~~~~~~~~~~~~~~~~~~~~~~~~~~~~~~~~~~~~~~~~~~~~
 WANNIER NUMBER   39 ATOMIC EXTENT  0.9885
 CENTROID'S COORDINATES R0:   -0.75208E+00    0.35737E+01   -0.11614E+01
 EXPECTATION VALUE OF (R-R0)**2:  0.31573E+01
 SECOND ORDER TENSOR IN CARTESIAN AXES:
         X             Y             Z
 X  0.12441E+01  0.15651E+00 -0.14619E+00
 Y  0.15651E+00  0.96052E+00 -0.62969E-01
 Z -0.14619E+00 -0.62969E-01  0.95266E+00
 TENSOR EIGENVALUES:
 A  0.13737E+01  B  0.89009E+00  C  0.89353E+00
 PRINCIPAL AXES:
         X             Y             Z
 A  0.85562E+00  0.37800E+00 -0.35361E+00
 B -0.51541E+00  0.68508E+00 -0.51480E+00
 C  0.47658E-01  0.62272E+00  0.78099E+00
 NON BONDING WANNIER FUNCTION
 DISTANCE CENTROID-ATOM    1(  0  0  0) :   0.89051E+00
 ATOMIC POPULATION DATA:
  1 BA(  0  0  0)  1.0058
 A.O. POPULATIONS OF ATOM    1(  0  0  0):
   0.0331   0.2141  -0.0022   0.0874   0.0184   0.0147   0.4662   0.0941
   0.0798   0.0000   0.0000   0.0000   0.0000   0.0000   0.0000   0.0000
   0.0000   0.0000   0.0002
~~~~~~~~~~~~~~~~~~~~~~~~~~~~~~~~~~~~~~~~~~~~~~~~~~~~~~~~~~~~~~~~~~~~~~~~~~~~~~~~
 WANNIER NUMBER   40 ATOMIC EXTENT  0.9919
 CENTROID'S COORDINATES R0:   -0.35296E-02   -0.48083E+01    0.41121E+01
 EXPECTATION VALUE OF (R-R0)**2:  0.31478E+01
 SECOND ORDER TENSOR IN CARTESIAN AXES:
         X             Y             Z
 X  0.89168E+00  0.18638E-02  0.73632E-03
 Y  0.18638E-02  0.13617E+01 -0.23837E-01
 Z  0.73632E-03 -0.23837E-01  0.89442E+00
 TENSOR EIGENVALUES:
 A  0.89131E+00  B  0.13630E+01  C  0.89357E+00
 PRINCIPAL AXES:
         X             Y             Z
 A  0.91627E+00 -0.23891E-01 -0.39986E+00
 B  0.38702E-02  0.99870E+00 -0.50803E-01
 C  0.40055E+00  0.45002E-01  0.91517E+00
 NON BONDING WANNIER FUNCTION
 DISTANCE CENTROID-ATOM    2(  0  0  0) :   0.87293E+00
 ATOMIC POPULATION DATA:
  2 BA(  0  0  0)  1.0041
 A.O. POPULATIONS OF ATOM    2(  0  0  0):
   0.0368   0.2449  -0.0142   0.0000   0.1147   0.0003   0.0000   0.6202
   0.0014   0.0000   0.0000   0.0000   0.0000   0.0000   0.0000  -0.0000
  -0.0000   0.0000   0.0000
~~~~~~~~~~~~~~~~~~~~~~~~~~~~~~~~~~~~~~~~~~~~~~~~~~~~~~~~~~~~~~~~~~~~~~~~~~~~~~~~
 WANNIER NUMBER   41 ATOMIC EXTENT  0.9921
 CENTROID'S COORDINATES R0:   -0.19912E-01    0.48077E+01   -0.14214E+01
 EXPECTATION VALUE OF (R-R0)**2:  0.31502E+01
 SECOND ORDER TENSOR IN CARTESIAN AXES:
         X             Y             Z
 X  0.89381E+00 -0.10689E-01 -0.13034E-02
 Y -0.10689E-01  0.13609E+01  0.28261E-01
 Z -0.13034E-02  0.28261E-01  0.89555E+00
 TENSOR EIGENVALUES:
 A  0.89303E+00  B  0.13628E+01  C  0.89437E+00
 PRINCIPAL AXES:
         X             Y             Z
 A  0.77515E+00 -0.20435E-01  0.63145E+00
 B -0.22910E-01  0.99791E+00  0.60419E-01
 C -0.63136E+00 -0.61301E-01  0.77306E+00
 NON BONDING WANNIER FUNCTION
 DISTANCE CENTROID-ATOM    1(  0  0  0) :   0.87293E+00
 ATOMIC POPULATION DATA:
  1 BA(  0  0  0)  1.0040
 A.O. POPULATIONS OF ATOM    1(  0  0  0):
   0.0368   0.2447  -0.0141   0.0001   0.1143   0.0004   0.0004   0.6194
   0.0020   0.0000   0.0000   0.0000   0.0000   0.0000   0.0000   0.0000
   0.0000   0.0000   0.0000
~~~~~~~~~~~~~~~~~~~~~~~~~~~~~~~~~~~~~~~~~~~~~~~~~~~~~~~~~~~~~~~~~~~~~~~~~~~~~~~~
 WANNIER NUMBER   42 ATOMIC EXTENT  0.9897
 CENTROID'S COORDINATES R0:    0.67673E+00    0.35999E+01   -0.99664E+00
 EXPECTATION VALUE OF (R-R0)**2:  0.31613E+01
 SECOND ORDER TENSOR IN CARTESIAN AXES:
         X             Y             Z
 X  0.11756E+01 -0.13248E+00  0.20035E+00
 Y -0.13248E+00  0.94714E+00 -0.90980E-01
 Z  0.20035E+00 -0.90980E-01  0.10385E+01
 TENSOR EIGENVALUES:
 A  0.13787E+01  B  0.88642E+00  C  0.89622E+00
 PRINCIPAL AXES:
         X             Y             Z
 A  0.76368E+00 -0.34896E+00  0.54316E+00
 B  0.44600E+00  0.89346E+00 -0.53056E-01
 C -0.46677E+00  0.28277E+00  0.83795E+00
 NON BONDING WANNIER FUNCTION
 DISTANCE CENTROID-ATOM    1(  0  0  0) :   0.89229E+00
 ATOMIC POPULATION DATA:
  1 BA(  0  0  0)  1.0052
 A.O. POPULATIONS OF ATOM    1(  0  0  0):
   0.0328   0.2119  -0.0009   0.0700   0.0157   0.0346   0.3743   0.0803
   0.1864   0.0000   0.0000   0.0000   0.0000   0.0000   0.0000   0.0000
   0.0000   0.0000   0.0002
~~~~~~~~~~~~~~~~~~~~~~~~~~~~~~~~~~~~~~~~~~~~~~~~~~~~~~~~~~~~~~~~~~~~~~~~~~~~~~~~
 WANNIER NUMBER   43 ATOMIC EXTENT  1.0323
 CENTROID'S COORDINATES R0:   -0.39734E+01   -0.57974E+01   -0.39838E+01
 EXPECTATION VALUE OF (R-R0)**2:  0.16549E+01
 SECOND ORDER TENSOR IN CARTESIAN AXES:
         X             Y             Z
 X  0.43029E+00 -0.26234E-03  0.23259E-03
 Y -0.26234E-03  0.73815E+00 -0.15666E+00
 Z  0.23259E-03 -0.15666E+00  0.48650E+00
 TENSOR EIGENVALUES:
 A  0.43029E+00  B  0.81326E+00  C  0.41139E+00
 PRINCIPAL AXES:
         X             Y             Z
 A  0.99999E+00  0.29976E-02  0.42163E-02
 B -0.88025E-03  0.90172E+00 -0.43231E+00
 C -0.50979E-02  0.43230E+00  0.90171E+00
 NON BONDING WANNIER FUNCTION
 DISTANCE CENTROID-ATOM    5(  0  0  0) :   0.54477E+00
 ATOMIC POPULATION DATA:
  5 F (  0  0  0)  0.9842
 A.O. POPULATIONS OF ATOM    5(  0  0  0):
   0.0014  -0.0085   0.0735   0.1197   0.0829   0.0000   0.1976   0.0407
   0.0000   0.1873   0.0379   0.0000   0.2092   0.0424   0.0000   0.0000
   0.0000   0.0000   0.0000
~~~~~~~~~~~~~~~~~~~~~~~~~~~~~~~~~~~~~~~~~~~~~~~~~~~~~~~~~~~~~~~~~~~~~~~~~~~~~~~~
 WANNIER NUMBER   44 ATOMIC EXTENT  0.9951
 CENTROID'S COORDINATES R0:   -0.40355E+01   -0.27298E+01   -0.11207E+01
 EXPECTATION VALUE OF (R-R0)**2:  0.58217E+00
 SECOND ORDER TENSOR IN CARTESIAN AXES:
         X             Y             Z
 X  0.16718E+00  0.80992E-02 -0.11255E-01
 Y  0.80992E-02  0.15550E+00 -0.39424E-01
 Z -0.11255E-01 -0.39424E-01  0.25949E+00
 TENSOR EIGENVALUES:
 A  0.16623E+00  B  0.14155E+00  C  0.27438E+00
 PRINCIPAL AXES:
         X             Y             Z
 A  0.97845E+00  0.11934E+00  0.16853E+00
 B -0.16602E+00  0.93991E+00  0.29835E+00
 C -0.12280E+00 -0.31990E+00  0.93946E+00
 NON BONDING WANNIER FUNCTION
 DISTANCE CENTROID-ATOM    3(  0  0  0) :   0.48895E+00
 ATOMIC POPULATION DATA:
  3 ZN(  0  0  0)  1.0025
 A.O. POPULATIONS OF ATOM    3(  0  0  0):
  -0.0001  -0.0044   0.0729   0.0512   0.0013  -0.0012   0.0000  -0.0001
   0.0007  -0.0002  -0.0011  -0.0092   0.0044   0.0295   0.2545   0.0011
   0.0073   0.0633   0.2058   0.0158   0.0611   0.0098   0.0002   0.1230
   0.0095   0.0360   0.0057   0.0001   0.0472   0.0038   0.0126   0.0018
   0.0000
~~~~~~~~~~~~~~~~~~~~~~~~~~~~~~~~~~~~~~~~~~~~~~~~~~~~~~~~~~~~~~~~~~~~~~~~~~~~~~~~
 WANNIER NUMBER   45 ATOMIC EXTENT  1.1590
 CENTROID'S COORDINATES R0:   -0.39747E+01   -0.48758E+01   -0.37707E+01
 EXPECTATION VALUE OF (R-R0)**2:  0.17230E+01
 SECOND ORDER TENSOR IN CARTESIAN AXES:
         X             Y             Z
 X  0.46283E+00 -0.10165E-02 -0.89825E-03
 Y -0.10165E-02  0.61589E+00  0.16684E+00
 Z -0.89825E-03  0.16684E+00  0.64430E+00
 TENSOR EIGENVALUES:
 A  0.46291E+00  B  0.46258E+00  C  0.79754E+00
 PRINCIPAL AXES:
         X             Y             Z
 A  0.87163E+00 -0.35861E+00  0.33415E+00
 B  0.49015E+00  0.64328E+00 -0.58817E+00
 C -0.40309E-02  0.67645E+00  0.73648E+00
 BONDING WANNIER FUNCTION BETWEEN ATOMS:
 A:   5 F (  0  0  0) X -0.397391E+01 Y -0.530472E+01 Z -0.421616E+01 (AU)
 B:   3 ZN(  0  0  0) X -0.397391E+01 Y -0.258269E+01 Z -0.158290E+01 (AU)
 DISTANCE OF THE CENTROID FROM THE ATOMS A,B AND FROM THE A-B BOND:
  0.61834E+00  0.31694E+01  0.21964E-01
 POLARISATION FRACTION (0: COVALENT; 1: VERY IONIC)  0.67367E+00
 ATOMIC POPULATION DATA:
  3 ZN(  0  0  0)  0.0721   5 F (  0  0  0)  0.9261
 A.O. POPULATIONS OF ATOM    3(  0  0  0):
  -0.0000   0.0000   0.0009  -0.0016   0.0032   0.0298   0.0000   0.0184
   0.0180  -0.0000  -0.0000  -0.0000   0.0000   0.0004   0.0004  -0.0000
   0.0000  -0.0001   0.0000   0.0000   0.0003   0.0000   0.0000  -0.0000
   0.0000  -0.0002  -0.0000   0.0000   0.0002   0.0000   0.0018   0.0006
   0.0000
 A.O. POPULATIONS OF ATOM    5(  0  0  0):
   0.0011  -0.0065   0.0549   0.0991   0.0588   0.0000   0.1085   0.1248
   0.0000   0.1048   0.1198   0.0000   0.1218   0.1386   0.0000   0.0000
   0.0001   0.0000  -0.0000
~~~~~~~~~~~~~~~~~~~~~~~~~~~~~~~~~~~~~~~~~~~~~~~~~~~~~~~~~~~~~~~~~~~~~~~~~~~~~~~~
 WANNIER NUMBER   46 ATOMIC EXTENT  0.9940
 CENTROID'S COORDINATES R0:   -0.39379E+01    0.22879E+01    0.35664E+01
 EXPECTATION VALUE OF (R-R0)**2:  0.57454E+00
 SECOND ORDER TENSOR IN CARTESIAN AXES:
         X             Y             Z
 X  0.16502E+00 -0.60832E-02 -0.51823E-02
 Y -0.60832E-02  0.18403E+00  0.65596E-01
 Z -0.51823E-02  0.65596E-01  0.22550E+00
 TENSOR EIGENVALUES:
 A  0.16458E+00  B  0.13585E+00  C  0.27411E+00
 PRINCIPAL AXES:
         X             Y             Z
 A  0.99541E+00 -0.97733E-02  0.95208E-01
 B  0.64057E-01  0.80714E+00 -0.58687E+00
 C -0.71111E-01  0.59028E+00  0.80406E+00
 NON BONDING WANNIER FUNCTION
 DISTANCE CENTROID-ATOM    4(  0  0  0) :   0.49202E+00
 ATOMIC POPULATION DATA:
  4 ZN(  0  0  0)  1.0030
 A.O. POPULATIONS OF ATOM    4(  0  0  0):
  -0.0001  -0.0044   0.0723   0.0510   0.0013  -0.0009   0.0000   0.0004
   0.0003  -0.0001  -0.0036  -0.0067   0.0015   0.0975   0.1866   0.0004
   0.0243   0.0469   0.0699   0.0042   0.1709   0.0498   0.0013   0.0416
   0.0025   0.1011   0.0296   0.0008   0.0155   0.0010   0.0368   0.0107
   0.0003
~~~~~~~~~~~~~~~~~~~~~~~~~~~~~~~~~~~~~~~~~~~~~~~~~~~~~~~~~~~~~~~~~~~~~~~~~~~~~~~~
 WANNIER NUMBER   47 ATOMIC EXTENT  0.9979
 CENTROID'S COORDINATES R0:   -0.35722E+01   -0.27319E+01   -0.14040E+01
 EXPECTATION VALUE OF (R-R0)**2:  0.64435E+00
 SECOND ORDER TENSOR IN CARTESIAN AXES:
         X             Y             Z
 X  0.28421E+00 -0.53729E-01  0.53907E-01
 Y -0.53729E-01  0.16631E+00 -0.10404E-01
 Z  0.53907E-01 -0.10404E-01  0.19383E+00
 TENSOR EIGENVALUES:
 A  0.32702E+00  B  0.14263E+00  C  0.17470E+00
 PRINCIPAL AXES:
         X             Y             Z
 A  0.87077E+00 -0.31554E+00  0.37708E+00
 B  0.43215E+00  0.85695E+00 -0.28085E+00
 C -0.23452E+00  0.40751E+00  0.88257E+00
 NON BONDING WANNIER FUNCTION
 DISTANCE CENTROID-ATOM    3(  0  0  0) :   0.46438E+00
 ATOMIC POPULATION DATA:
  3 ZN(  0  0  0)  1.0010
 A.O. POPULATIONS OF ATOM    3(  0  0  0):
  -0.0000  -0.0037   0.0573   0.0406   0.0015   0.0016   0.0007   0.0001
   0.0001  -0.0070  -0.0009  -0.0014   0.1869   0.0254   0.0376   0.0465
   0.0064   0.0093   0.0427   0.1076   0.0332   0.0922   0.0532   0.0254
   0.0647   0.0196   0.0547   0.0320   0.0094   0.0258   0.0070   0.0198
   0.0127
~~~~~~~~~~~~~~~~~~~~~~~~~~~~~~~~~~~~~~~~~~~~~~~~~~~~~~~~~~~~~~~~~~~~~~~~~~~~~~~~
 WANNIER NUMBER   48 ATOMIC EXTENT  0.9990
 CENTROID'S COORDINATES R0:   -0.42010E+01   -0.26272E+01   -0.20136E+01
 EXPECTATION VALUE OF (R-R0)**2:  0.59532E+00
 SECOND ORDER TENSOR IN CARTESIAN AXES:
         X             Y             Z
 X  0.17863E+00  0.15674E-01  0.54581E-01
 Y  0.15674E-01  0.16250E+00  0.31715E-02
 Z  0.54581E-01  0.31715E-02  0.25420E+00
 TENSOR EIGENVALUES:
 A  0.14217E+00  B  0.16951E+00  C  0.28364E+00
 PRINCIPAL AXES:
         X             Y             Z
 A  0.76566E+00 -0.53447E+00 -0.35792E+00
 B  0.43983E+00  0.84103E+00 -0.31498E+00
 C  0.46937E+00  0.83742E-01  0.87902E+00
 NON BONDING WANNIER FUNCTION
 DISTANCE CENTROID-ATOM    3(  0  0  0) :   0.48894E+00
 ATOMIC POPULATION DATA:
  3 ZN(  0  0  0)  1.0005
 A.O. POPULATIONS OF ATOM    3(  0  0  0):
  -0.0001  -0.0044   0.0712   0.0502   0.0014  -0.0005   0.0001  -0.0000
   0.0003  -0.0023  -0.0001  -0.0081   0.0650   0.0019   0.2203   0.0162
   0.0005   0.0549   0.1266   0.1366   0.0120   0.0146   0.0004   0.0760
   0.0821   0.0071   0.0088   0.0002   0.0301   0.0328   0.0027   0.0036
   0.0001
~~~~~~~~~~~~~~~~~~~~~~~~~~~~~~~~~~~~~~~~~~~~~~~~~~~~~~~~~~~~~~~~~~~~~~~~~~~~~~~~
 WANNIER NUMBER   49 ATOMIC EXTENT  0.9928
 CENTROID'S COORDINATES R0:   -0.39418E+01    0.29721E+01    0.36653E+01
 EXPECTATION VALUE OF (R-R0)**2:  0.57338E+00
 SECOND ORDER TENSOR IN CARTESIAN AXES:
         X             Y             Z
 X  0.16562E+00  0.66225E-02 -0.22464E-02
 Y  0.66225E-02  0.21991E+00 -0.65802E-01
 Z -0.22464E-02 -0.65802E-01  0.18786E+00
 TENSOR EIGENVALUES:
 A  0.16539E+00  B  0.27202E+00  C  0.13597E+00
 PRINCIPAL AXES:
         X             Y             Z
 A  0.99495E+00  0.30765E-03  0.10039E+00
 B  0.61890E-01  0.78548E+00 -0.61578E+00
 C -0.79044E-01  0.61889E+00  0.78149E+00
 NON BONDING WANNIER FUNCTION
 DISTANCE CENTROID-ATOM    4(  0  0  0) :   0.48865E+00
 ATOMIC POPULATION DATA:
  4 ZN(  0  0  0)  1.0036
 A.O. POPULATIONS OF ATOM    4(  0  0  0):
  -0.0001  -0.0044   0.0730   0.0514   0.0013  -0.0012   0.0000   0.0001
   0.0003  -0.0000  -0.0065  -0.0040   0.0012   0.1790   0.1096   0.0003
   0.0444   0.0271   0.0037   0.0024   0.1679   0.1179   0.0021   0.0022
   0.0014   0.0993   0.0701   0.0013   0.0007   0.0006   0.0361   0.0259
   0.0005
~~~~~~~~~~~~~~~~~~~~~~~~~~~~~~~~~~~~~~~~~~~~~~~~~~~~~~~~~~~~~~~~~~~~~~~~~~~~~~~~
 WANNIER NUMBER   50 ATOMIC EXTENT  0.9990
 CENTROID'S COORDINATES R0:   -0.43507E+01    0.26183E+01    0.36925E+01
 EXPECTATION VALUE OF (R-R0)**2:  0.65069E+00
 SECOND ORDER TENSOR IN CARTESIAN AXES:
         X             Y             Z
 X  0.26784E+00 -0.11250E-01  0.85262E-01
 Y -0.11250E-01  0.17668E+00 -0.40035E-02
 Z  0.85262E-01 -0.40035E-02  0.20617E+00
 TENSOR EIGENVALUES:
 A  0.32855E+00  B  0.17615E+00  C  0.14600E+00
 PRINCIPAL AXES:
         X             Y             Z
 A  0.81699E+00 -0.75592E-01  0.57167E+00
 B  0.79767E-03  0.99152E+00  0.12997E+00
 C -0.57665E+00 -0.10573E+00  0.81012E+00
 NON BONDING WANNIER FUNCTION
 DISTANCE CENTROID-ATOM    4(  0  0  0) :   0.46268E+00
 ATOMIC POPULATION DATA:
  4 ZN(  0  0  0)  1.0005
 A.O. POPULATIONS OF ATOM    4(  0  0  0):
  -0.0000  -0.0037   0.0581   0.0411   0.0013   0.0008   0.0004   0.0000
   0.0002  -0.0061  -0.0001  -0.0031   0.1648   0.0014   0.0831   0.0411
   0.0004   0.0208   0.0019   0.1746   0.0042   0.1436   0.0031   0.0012
   0.1049   0.0025   0.0857   0.0019   0.0006   0.0419   0.0010   0.0322
   0.0008
~~~~~~~~~~~~~~~~~~~~~~~~~~~~~~~~~~~~~~~~~~~~~~~~~~~~~~~~~~~~~~~~~~~~~~~~~~~~~~~~
 WANNIER NUMBER   51 ATOMIC EXTENT  0.9978
 CENTROID'S COORDINATES R0:   -0.35505E+01    0.26115E+01    0.37715E+01
 EXPECTATION VALUE OF (R-R0)**2:  0.64278E+00
 SECOND ORDER TENSOR IN CARTESIAN AXES:
         X             Y             Z
 X  0.29765E+00  0.10027E-01 -0.68433E-01
 Y  0.10027E-01  0.17289E+00 -0.43056E-03
 Z -0.68433E-01 -0.43056E-03  0.17224E+00
 TENSOR EIGENVALUES:
 A  0.32833E+00  B  0.17276E+00  C  0.14169E+00
 PRINCIPAL AXES:
         X             Y             Z
 A  0.91413E+00  0.60078E-01 -0.40094E+00
 B -0.72461E-02  0.99122E+00  0.13201E+00
 C  0.40535E+00 -0.11777E+00  0.90654E+00
 NON BONDING WANNIER FUNCTION
 DISTANCE CENTROID-ATOM    4(  0  0  0) :   0.46388E+00
 ATOMIC POPULATION DATA:
  4 ZN(  0  0  0)  1.0011
 A.O. POPULATIONS OF ATOM    4(  0  0  0):
  -0.0000  -0.0037   0.0576   0.0408   0.0014   0.0015   0.0004   0.0000
   0.0001  -0.0078  -0.0000  -0.0015   0.2091   0.0009   0.0409   0.0520
   0.0002   0.0103   0.0073   0.1073   0.0023   0.2086   0.0028   0.0043
   0.0645   0.0013   0.1243   0.0017   0.0013   0.0258   0.0005   0.0464
   0.0007
~~~~~~~~~~~~~~~~~~~~~~~~~~~~~~~~~~~~~~~~~~~~~~~~~~~~~~~~~~~~~~~~~~~~~~~~~~~~~~~~
 WANNIER NUMBER   52 ATOMIC EXTENT  0.9995
 CENTROID'S COORDINATES R0:   -0.42887E+01    0.22203E+01    0.40532E+01
 EXPECTATION VALUE OF (R-R0)**2:  0.59663E+00
 SECOND ORDER TENSOR IN CARTESIAN AXES:
         X             Y             Z
 X  0.20812E+00  0.66941E-01 -0.59251E-02
 Y  0.66941E-01  0.22077E+00 -0.26383E-01
 Z -0.59251E-02 -0.26383E-01  0.16774E+00
 TENSOR EIGENVALUES:
 A  0.13978E+00  B  0.28639E+00  C  0.17047E+00
 PRINCIPAL AXES:
         X             Y             Z
 A  0.59054E+00 -0.64574E+00 -0.48403E+00
 B  0.64585E+00  0.73780E+00 -0.19632E+00
 C  0.48388E+00 -0.19667E+00  0.85275E+00
 NON BONDING WANNIER FUNCTION
 DISTANCE CENTROID-ATOM    4(  0  0  0) :   0.48924E+00
 ATOMIC POPULATION DATA:
  4 ZN(  0  0  0)  1.0003
 A.O. POPULATIONS OF ATOM    4(  0  0  0):
  -0.0001  -0.0043   0.0698   0.0496   0.0013   0.0003  -0.0002   0.0002
  -0.0000  -0.0044  -0.0056  -0.0004   0.1239   0.1527   0.0115   0.0309
   0.0381   0.0029   0.0782   0.0253   0.0113   0.0049   0.1711   0.0469
   0.0152   0.0066   0.0030   0.1028   0.0184   0.0061   0.0023   0.0013
   0.0406
~~~~~~~~~~~~~~~~~~~~~~~~~~~~~~~~~~~~~~~~~~~~~~~~~~~~~~~~~~~~~~~~~~~~~~~~~~~~~~~~
 WANNIER NUMBER   53 ATOMIC EXTENT  0.9958
 CENTROID'S COORDINATES R0:   -0.39876E+01   -0.21759E+01   -0.18046E+01
 EXPECTATION VALUE OF (R-R0)**2:  0.63744E+00
 SECOND ORDER TENSOR IN CARTESIAN AXES:
         X             Y             Z
 X  0.14183E+00 -0.75894E-02 -0.51075E-02
 Y -0.75894E-02  0.28206E+00 -0.58078E-01
 Z -0.51075E-02 -0.58078E-01  0.21355E+00
 TENSOR EIGENVALUES:
 A  0.14007E+00  B  0.31532E+00  C  0.18204E+00
 PRINCIPAL AXES:
         X             Y             Z
 A  0.97967E+00  0.11856E+00  0.16182E+00
 B -0.23445E-01  0.86881E+00 -0.49459E+00
 C -0.19922E+00  0.48074E+00  0.85393E+00
 NON BONDING WANNIER FUNCTION
 DISTANCE CENTROID-ATOM    3(  0  0  0) :   0.46349E+00
 ATOMIC POPULATION DATA:
  3 ZN(  0  0  0)  1.0021
 A.O. POPULATIONS OF ATOM    3(  0  0  0):
  -0.0000  -0.0038   0.0598   0.0423   0.0011  -0.0002  -0.0000   0.0007
   0.0002  -0.0000  -0.0072  -0.0021   0.0002   0.1909   0.0563   0.0001
   0.0478   0.0142   0.0202   0.0020   0.2018   0.1071   0.0000   0.0123
   0.0012   0.1193   0.0641   0.0000   0.0054   0.0005   0.0431   0.0246
   0.0000
~~~~~~~~~~~~~~~~~~~~~~~~~~~~~~~~~~~~~~~~~~~~~~~~~~~~~~~~~~~~~~~~~~~~~~~~~~~~~~~~
 WANNIER NUMBER   54 ATOMIC EXTENT  1.1199
 CENTROID'S COORDINATES R0:   -0.46473E+00   -0.24361E+01   -0.13712E+01
 EXPECTATION VALUE OF (R-R0)**2:  0.17185E+01
 SECOND ORDER TENSOR IN CARTESIAN AXES:
         X             Y             Z
 X  0.73867E+00  0.91868E-01 -0.12089E+00
 Y  0.91868E-01  0.46494E+00 -0.43776E-01
 Z -0.12089E+00 -0.43776E-01  0.51488E+00
 TENSOR EIGENVALUES:
 A  0.82059E+00  B  0.43547E+00  C  0.46243E+00
 PRINCIPAL AXES:
         X             Y             Z
 A  0.87997E+00  0.27498E+00 -0.38735E+00
 B -0.20208E+00  0.95465E+00  0.21865E+00
 C  0.42991E+00 -0.11413E+00  0.89563E+00
 BONDING WANNIER FUNCTION BETWEEN ATOMS:
 A:  10 F (  0  0  0) X  0.159392E-16 Y -0.224096E+01 Z -0.162535E+01 (AU)
 B:   3 ZN(  0  0  0) X -0.397391E+01 Y -0.258269E+01 Z -0.158290E+01 (AU)
 DISTANCE OF THE CENTROID FROM THE ATOMS A,B AND FROM THE A-B BOND:
  0.56449E+00  0.35186E+01  0.29311E+00
 POLARISATION FRACTION (0: COVALENT; 1: VERY IONIC)  0.75811E+00
 ATOMIC POPULATION DATA:
  3 ZN(  0  0  0)  0.0457  10 F (  0  0  0)  0.9438
 A.O. POPULATIONS OF ATOM    3(  0  0  0):
  -0.0000  -0.0000   0.0004  -0.0007   0.0008   0.0171   0.0255  -0.0000
   0.0006  -0.0000  -0.0000  -0.0000   0.0005   0.0000   0.0000  -0.0001
   0.0000  -0.0000   0.0001   0.0000   0.0000   0.0002   0.0000  -0.0000
  -0.0000   0.0000  -0.0001   0.0000   0.0003   0.0001  -0.0000   0.0011
  -0.0000
 A.O. POPULATIONS OF ATOM   10(  0  0  0):
   0.0015  -0.0077   0.0676   0.1136   0.0763   0.1434   0.0285   0.0520
   0.1404   0.0277   0.0495   0.1651   0.0309   0.0552   0.0000  -0.0000
   0.0000   0.0000   0.0000
~~~~~~~~~~~~~~~~~~~~~~~~~~~~~~~~~~~~~~~~~~~~~~~~~~~~~~~~~~~~~~~~~~~~~~~~~~~~~~~~
 WANNIER NUMBER   55 ATOMIC EXTENT  0.9964
 CENTROID'S COORDINATES R0:   -0.38888E+01   -0.30470E+01   -0.17132E+01
 EXPECTATION VALUE OF (R-R0)**2:  0.58515E+00
 SECOND ORDER TENSOR IN CARTESIAN AXES:
         X             Y             Z
 X  0.16935E+00 -0.19299E-01 -0.68693E-03
 Y -0.19299E-01  0.26273E+00  0.35441E-01
 Z -0.68693E-03  0.35441E-01  0.15308E+00
 TENSOR EIGENVALUES:
 A  0.16700E+00  B  0.27646E+00  C  0.14170E+00
 PRINCIPAL AXES:
         X             Y             Z
 A  0.96681E+00  0.10943E+00  0.23086E+00
 B -0.17229E+00  0.94651E+00  0.27283E+00
 C -0.18866E+00 -0.30355E+00  0.93395E+00
 NON BONDING WANNIER FUNCTION
 DISTANCE CENTROID-ATOM    3(  0  0  0) :   0.48966E+00
 ATOMIC POPULATION DATA:
  3 ZN(  0  0  0)  1.0018
 A.O. POPULATIONS OF ATOM    3(  0  0  0):
  -0.0001  -0.0044   0.0722   0.0509   0.0013  -0.0008   0.0001   0.0004
   0.0001  -0.0003  -0.0094  -0.0007   0.0081   0.2615   0.0182   0.0021
   0.0652   0.0045   0.0237   0.0040   0.0464   0.1926   0.0257   0.0144
   0.0024   0.0273   0.1149   0.0155   0.0061   0.0010   0.0095   0.0434
   0.0061
~~~~~~~~~~~~~~~~~~~~~~~~~~~~~~~~~~~~~~~~~~~~~~~~~~~~~~~~~~~~~~~~~~~~~~~~~~~~~~~~
 WANNIER NUMBER   56 ATOMIC EXTENT  1.0350
 CENTROID'S COORDINATES R0:   -0.44309E+01   -0.49829E+01    0.15546E+01
 EXPECTATION VALUE OF (R-R0)**2:  0.16804E+01
 SECOND ORDER TENSOR IN CARTESIAN AXES:
         X             Y             Z
 X  0.69376E+00 -0.54482E-01 -0.19897E+00
 Y -0.54482E-01  0.42450E+00  0.43725E-01
 Z -0.19897E+00  0.43725E-01  0.56215E+00
 TENSOR EIGENVALUES:
 A  0.84899E+00  B  0.41132E+00  C  0.42010E+00
 PRINCIPAL AXES:
         X             Y             Z
 A  0.79904E+00 -0.16219E+00 -0.57899E+00
 B -0.14156E+00  0.88512E+00 -0.44330E+00
 C  0.58438E+00  0.43618E+00  0.68429E+00
 NON BONDING WANNIER FUNCTION
 DISTANCE CENTROID-ATOM    7(  0  0  0) :   0.56000E+00
 ATOMIC POPULATION DATA:
  7 F (  0  0  0)  0.9829   2 BA( -1  1  0)  0.0123
 A.O. POPULATIONS OF ATOM    7(  0  0  0):
   0.0013  -0.0081   0.0704   0.1075   0.0882   0.1592   0.0063   0.0738
[...]
  -0.0000  -0.0015   0.0057  -0.0009  -0.0001  -0.0004  -0.0004  -0.0001
  -0.0002   0.0000   0.0004   0.0001   0.0001   0.0001   0.0000   0.0050
   0.0007   0.0019   0.0015
~~~~~~~~~~~~~~~~~~~~~~~~~~~~~~~~~~~~~~~~~~~~~~~~~~~~~~~~~~~~~~~~~~~~~~~~~~~~~~~~
 WANNIER NUMBER   63 ATOMIC EXTENT  1.0457
 CENTROID'S COORDINATES R0:   -0.38644E-01    0.24202E+01    0.34079E+01
 EXPECTATION VALUE OF (R-R0)**2:  0.16266E+01
 SECOND ORDER TENSOR IN CARTESIAN AXES:
         X             Y             Z
 X  0.43365E+00 -0.81784E-02  0.22889E-01
 Y -0.81784E-02  0.43640E+00 -0.97086E-01
 Z  0.22889E-01 -0.97086E-01  0.75656E+00
 TENSOR EIGENVALUES:
 A  0.43210E+00  B  0.40913E+00  C  0.78537E+00
 PRINCIPAL AXES:
         X             Y             Z
 A  0.99485E+00 -0.53429E-01 -0.86170E-01
 B  0.74500E-01  0.96169E+00  0.26383E+00
 C  0.68772E-01 -0.26889E+00  0.96071E+00
 ATOMIC POPULATION DATA:
  9 F (  0  0  0)  0.9778
 A.O. POPULATIONS OF ATOM    9(  0  0  0):
   0.0011  -0.0074   0.0632   0.1044   0.0726   0.0011   0.0254   0.2206
   0.0011   0.0245   0.2093   0.0013   0.0274   0.2335   0.0000   0.0000
   0.0000   0.0000   0.0000
~~~~~~~~~~~~~~~~~~~~~~~~~~~~~~~~~~~~~~~~~~~~~~~~~~~~~~~~~~~~~~~~~~~~~~~~~~~~~~~~
 WANNIER NUMBER   64 ATOMIC EXTENT  1.0357
 CENTROID'S COORDINATES R0:   -0.35212E+01    0.52180E+01    0.10211E+01
 EXPECTATION VALUE OF (R-R0)**2:  0.16336E+01
 SECOND ORDER TENSOR IN CARTESIAN AXES:
         X             Y             Z
 X  0.66346E+00 -0.41167E-01 -0.17391E+00
 Y -0.41167E-01  0.42770E+00  0.36442E-01
 Z -0.17391E+00  0.36442E-01  0.54243E+00
 TENSOR EIGENVALUES:
 A  0.79521E+00  B  0.42499E+00  C  0.41339E+00
 PRINCIPAL AXES:
         X             Y             Z
 A  0.80485E+00 -0.14717E+00 -0.57494E+00
 B  0.48486E+00  0.72170E+00  0.49402E+00
 C  0.34223E+00 -0.67638E+00  0.65222E+00
 NON BONDING WANNIER FUNCTION
 DISTANCE CENTROID-ATOM    6(  0  0  0) :   0.55237E+00
 ATOMIC POPULATION DATA:
  1 BA(  0  0  0)  0.0127   6 F (  0  0  0)  0.9825
 A.O. POPULATIONS OF ATOM    1(  0  0  0):
   0.0000  -0.0012   0.0054  -0.0003   0.0000  -0.0002  -0.0006  -0.0001
  -0.0003   0.0000   0.0004   0.0001   0.0001   0.0001   0.0000   0.0050
   0.0007   0.0019   0.0015
 A.O. POPULATIONS OF ATOM    6(  0  0  0):
   0.0013  -0.0079   0.0693   0.1060   0.0867   0.1622   0.0046   0.0747
   0.1543   0.0038   0.0705   0.1734   0.0043   0.0793   0.0000  -0.0000
   0.0000  -0.0000   0.0000
~~~~~~~~~~~~~~~~~~~~~~~~~~~~~~~~~~~~~~~~~~~~~~~~~~~~~~~~~~~~~~~~~~~~~~~~~~~~~~~~
 WANNIER NUMBER   65 ATOMIC EXTENT  1.1208
 CENTROID'S COORDINATES R0:    0.47117E+00   -0.24309E+01   -0.13769E+01
 EXPECTATION VALUE OF (R-R0)**2:  0.17357E+01
 SECOND ORDER TENSOR IN CARTESIAN AXES:
         X             Y             Z
 X  0.75525E+00 -0.89294E-01  0.11933E+00
 Y -0.89294E-01  0.46577E+00 -0.41278E-01
 Z  0.11933E+00 -0.41278E-01  0.51466E+00
 TENSOR EIGENVALUES:
 A  0.83086E+00  B  0.43870E+00  C  0.46612E+00
 PRINCIPAL AXES:
         X             Y             Z
 A  0.89172E+00 -0.25998E+00  0.37046E+00
 B  0.18088E+00  0.95505E+00  0.23485E+00
 C -0.41487E+00 -0.14242E+00  0.89867E+00
 BONDING WANNIER FUNCTION BETWEEN ATOMS:
 A:  10 F (  0  0  0) X  0.159392E-16 Y -0.224096E+01 Z -0.162535E+01 (AU)
 B:   3 ZN(  1 -1  0) X  0.397391E+01 Y -0.258269E+01 Z -0.158290E+01 (AU)
 DISTANCE OF THE CENTROID FROM THE ATOMS A,B AND FROM THE A-B BOND:
  0.56553E+00  0.35121E+01  0.28523E+00
 POLARISATION FRACTION (0: COVALENT; 1: VERY IONIC)  0.75515E+00
 ATOMIC POPULATION DATA:
 10 F (  0  0  0)  0.9434   3 ZN(  1 -1  0)  0.0460
 A.O. POPULATIONS OF ATOM   10(  0  0  0):
   0.0015  -0.0077   0.0677   0.1136   0.0764   0.1465   0.0270   0.0498
   0.1439   0.0262   0.0474   0.1690   0.0292   0.0528   0.0000   0.0000
   0.0000   0.0000   0.0000
 A.O. POPULATIONS OF ATOM    3(  1 -1  0):
  -0.0000   0.0000   0.0001  -0.0009   0.0009   0.0176   0.0258  -0.0000
   0.0005   0.0000  -0.0000   0.0000   0.0002  -0.0000   0.0000   0.0000
   0.0000  -0.0000   0.0002   0.0000   0.0000   0.0006   0.0000  -0.0000
  -0.0000  -0.0000  -0.0000   0.0000   0.0001   0.0001  -0.0000   0.0006
  -0.0000
~~~~~~~~~~~~~~~~~~~~~~~~~~~~~~~~~~~~~~~~~~~~~~~~~~~~~~~~~~~~~~~~~~~~~~~~~~~~~~~~
 WANNIER NUMBER   66 ATOMIC EXTENT  1.0347
 CENTROID'S COORDINATES R0:   -0.35416E+01   -0.45228E+00   -0.47746E+01
 EXPECTATION VALUE OF (R-R0)**2:  0.15824E+01
 SECOND ORDER TENSOR IN CARTESIAN AXES:
         X             Y             Z
 X  0.61650E+00 -0.13704E+00 -0.10933E+00
 Y -0.13704E+00  0.50033E+00  0.52813E-01
 Z -0.10933E+00  0.52813E-01  0.46559E+00
 TENSOR EIGENVALUES:
 A  0.75705E+00  B  0.39725E+00  C  0.42812E+00
 PRINCIPAL AXES:
         X             Y             Z
 A  0.78017E+00 -0.49511E+00 -0.38237E+00
 B  0.61896E+00  0.52237E+00  0.58652E+00
 C -0.90654E-01 -0.69426E+00  0.71399E+00
 NON BONDING WANNIER FUNCTION
 DISTANCE CENTROID-ATOM   11(  0  0  0) :   0.53124E+00
 ATOMIC POPULATION DATA:
 11 F (  0  0  0)  0.9831
 A.O. POPULATIONS OF ATOM   11(  0  0  0):
   0.0010  -0.0076   0.0641   0.1054   0.0738   0.1612   0.0485   0.0341
   0.1580   0.0463   0.0330   0.1767   0.0516   0.0368   0.0000   0.0000
   0.0000   0.0000   0.0000
~~~~~~~~~~~~~~~~~~~~~~~~~~~~~~~~~~~~~~~~~~~~~~~~~~~~~~~~~~~~~~~~~~~~~~~~~~~~~~~~
 WANNIER NUMBER   67 ATOMIC EXTENT  1.0342
 CENTROID'S COORDINATES R0:   -0.35174E+01   -0.52134E+01   -0.45231E+01
 EXPECTATION VALUE OF (R-R0)**2:  0.16803E+01
 SECOND ORDER TENSOR IN CARTESIAN AXES:
         X             Y             Z
 X  0.69214E+00  0.54991E-01 -0.19516E+00
 Y  0.54991E-01  0.43137E+00 -0.46243E-01
 Z -0.19516E+00 -0.46243E-01  0.55682E+00
 TENSOR EIGENVALUES:
 A  0.84348E+00  B  0.42415E+00  C  0.41270E+00
 PRINCIPAL AXES:
         X             Y             Z
 A  0.80134E+00  0.17125E+00 -0.57317E+00
 B -0.49584E+00  0.72617E+00 -0.47626E+00
 C  0.33466E+00  0.66585E+00  0.66682E+00
 NON BONDING WANNIER FUNCTION
 DISTANCE CENTROID-ATOM    5(  0  0  0) :   0.55759E+00
 ATOMIC POPULATION DATA:
  5 F (  0  0  0)  0.9833   2 BA(  0  0 -1)  0.0120
 A.O. POPULATIONS OF ATOM    5(  0  0  0):
   0.0013  -0.0080   0.0700   0.1071   0.0874   0.1610   0.0050   0.0742
   0.1540   0.0042   0.0704   0.1729   0.0047   0.0790   0.0000   0.0000
   0.0000  -0.0000   0.0000
 A.O. POPULATIONS OF ATOM    2(  0  0 -1):
  -0.0000  -0.0015   0.0057  -0.0009  -0.0001  -0.0004  -0.0004  -0.0001
  -0.0002   0.0000   0.0004   0.0001   0.0001   0.0001   0.0000   0.0050
   0.0007   0.0019   0.0015
~~~~~~~~~~~~~~~~~~~~~~~~~~~~~~~~~~~~~~~~~~~~~~~~~~~~~~~~~~~~~~~~~~~~~~~~~~~~~~~~
 WANNIER NUMBER   68 ATOMIC EXTENT  1.0257
 CENTROID'S COORDINATES R0:   -0.27515E-02    0.17025E+01    0.39153E+01
 EXPECTATION VALUE OF (R-R0)**2:  0.15285E+01
 SECOND ORDER TENSOR IN CARTESIAN AXES:
         X             Y             Z
 X  0.42222E+00  0.18823E-02  0.34570E-04
 Y  0.18823E-02  0.70401E+00 -0.29694E-02
 Z  0.34570E-04 -0.29694E-02  0.40226E+00
 TENSOR EIGENVALUES:
 A  0.42221E+00  B  0.70405E+00  C  0.40223E+00
 PRINCIPAL AXES:
         X             Y             Z
 A  0.99997E+00 -0.66506E-02  0.27222E-02
 B  0.66771E-02  0.99993E+00 -0.98375E-02
 C -0.26566E-02  0.98554E-02  0.99995E+00
 NON BONDING WANNIER FUNCTION
 DISTANCE CENTROID-ATOM    9(  0  0  0) :   0.53845E+00
 ATOMIC POPULATION DATA:
  9 F (  0  0  0)  0.9874
 A.O. POPULATIONS OF ATOM    9(  0  0  0):
   0.0011  -0.0080   0.0679   0.1085   0.0792   0.0000   0.2429   0.0000
   0.0000   0.2349   0.0000   0.0000   0.2607   0.0000   0.0000   0.0000
   0.0000   0.0000   0.0000
~~~~~~~~~~~~~~~~~~~~~~~~~~~~~~~~~~~~~~~~~~~~~~~~~~~~~~~~~~~~~~~~~~~~~~~~~~~~~~~~
 WANNIER NUMBER   69 ATOMIC EXTENT  1.0258
 CENTROID'S COORDINATES R0:   -0.28356E-02   -0.17028E+01   -0.16221E+01
 EXPECTATION VALUE OF (R-R0)**2:  0.15292E+01
 SECOND ORDER TENSOR IN CARTESIAN AXES:
         X             Y             Z
 X  0.42212E+00 -0.18325E-02  0.38939E-05
 Y -0.18325E-02  0.70460E+00  0.59733E-02
 Z  0.38939E-05  0.59733E-02  0.40251E+00
 TENSOR EIGENVALUES:
 A  0.42210E+00  B  0.70473E+00  C  0.40239E+00
 PRINCIPAL AXES:
         X             Y             Z
 A  0.99998E+00  0.64410E-02  0.21620E-02
 B -0.64825E-02  0.99978E+00  0.19760E-01
 C -0.20342E-02 -0.19774E-01  0.99980E+00
 NON BONDING WANNIER FUNCTION
 DISTANCE CENTROID-ATOM   10(  0  0  0) :   0.53820E+00
 ATOMIC POPULATION DATA:
 10 F (  0  0  0)  0.9873
 A.O. POPULATIONS OF ATOM   10(  0  0  0):
   0.0011  -0.0079   0.0678   0.1084   0.0791   0.0000   0.2430   0.0000
   0.0000   0.2350   0.0000   0.0000   0.2608   0.0000   0.0000  -0.0000
   0.0000   0.0000   0.0000
~~~~~~~~~~~~~~~~~~~~~~~~~~~~~~~~~~~~~~~~~~~~~~~~~~~~~~~~~~~~~~~~~~~~~~~~~~~~~~~~
 WANNIER NUMBER   70 ATOMIC EXTENT  1.0353
 CENTROID'S COORDINATES R0:   -0.35385E+01    0.44389E+00    0.76715E+00
 EXPECTATION VALUE OF (R-R0)**2:  0.15643E+01
 SECOND ORDER TENSOR IN CARTESIAN AXES:
         X             Y             Z
 X  0.61316E+00  0.12675E+00 -0.10620E+00
 Y  0.12675E+00  0.48843E+00 -0.47333E-01
 Z -0.10620E+00 -0.47333E-01  0.46275E+00
 TENSOR EIGENVALUES:
 A  0.74003E+00  B  0.39719E+00  C  0.42712E+00
 PRINCIPAL AXES:
         X             Y             Z
 A  0.79336E+00  0.47201E+00 -0.38444E+00
 B -0.60381E+00  0.52981E+00 -0.59558E+00
 C -0.77443E-01  0.70464E+00  0.70533E+00
 NON BONDING WANNIER FUNCTION
 DISTANCE CENTROID-ATOM   12(  0  0  0) :   0.52999E+00
 ATOMIC POPULATION DATA:
 12 F (  0  0  0)  0.9828
 A.O. POPULATIONS OF ATOM   12(  0  0  0):
   0.0010  -0.0076   0.0639   0.1052   0.0736   0.1644   0.0455   0.0342
   0.1609   0.0434   0.0331   0.1799   0.0483   0.0369   0.0000   0.0000
   0.0000   0.0000   0.0000
~~~~~~~~~~~~~~~~~~~~~~~~~~~~~~~~~~~~~~~~~~~~~~~~~~~~~~~~~~~~~~~~~~~~~~~~~~~~~~~~
 WANNIER NUMBER   71 ATOMIC EXTENT  1.0348
 CENTROID'S COORDINATES R0:   -0.43981E+01    0.45926E+00    0.75635E+00
 EXPECTATION VALUE OF (R-R0)**2:  0.15788E+01
 SECOND ORDER TENSOR IN CARTESIAN AXES:
         X             Y             Z
 X  0.60799E+00 -0.13645E+00  0.11153E+00
 Y -0.13645E+00  0.50177E+00 -0.56180E-01
 Z  0.11153E+00 -0.56180E-01  0.46907E+00
 TENSOR EIGENVALUES:
 A  0.75502E+00  B  0.39628E+00  C  0.42753E+00
 PRINCIPAL AXES:
         X             Y             Z
 A  0.76781E+00 -0.50199E+00  0.39808E+00
 B  0.63515E+00  0.51496E+00 -0.57568E+00
 C  0.83988E-01  0.69485E+00  0.71423E+00
 NON BONDING WANNIER FUNCTION
 DISTANCE CENTROID-ATOM   12(  0  0  0) :   0.53192E+00
 ATOMIC POPULATION DATA:
 12 F (  0  0  0)  0.9830
 A.O. POPULATIONS OF ATOM   12(  0  0  0):
   0.0010  -0.0076   0.0642   0.1055   0.0740   0.1546   0.0513   0.0378
   0.1517   0.0490   0.0365   0.1695   0.0545   0.0408   0.0000   0.0000
   0.0000   0.0000  -0.0000
~~~~~~~~~~~~~~~~~~~~~~~~~~~~~~~~~~~~~~~~~~~~~~~~~~~~~~~~~~~~~~~~~~~~~~~~~~~~~~~~
 WANNIER NUMBER   72 ATOMIC EXTENT  1.1281
 CENTROID'S COORDINATES R0:   -0.39766E+01    0.33441E+00   -0.47367E+01
 EXPECTATION VALUE OF (R-R0)**2:  0.17140E+01
 SECOND ORDER TENSOR IN CARTESIAN AXES:
         X             Y             Z
 X  0.44760E+00 -0.26587E-02 -0.18072E-03
 Y -0.26587E-02  0.76527E+00 -0.12257E+00
 Z -0.18072E-03 -0.12257E+00  0.50110E+00
 TENSOR EIGENVALUES:
 A  0.44736E+00  B  0.81339E+00  C  0.45322E+00
 PRINCIPAL AXES:
         X             Y             Z
 A  0.98011E+00  0.78478E-01  0.18228E+00
 B -0.65853E-02  0.93085E+00 -0.36535E+00
 C -0.19835E+00  0.35688E+00  0.91285E+00
 BONDING WANNIER FUNCTION BETWEEN ATOMS:
 A:  11 F (  0  0  0) X -0.397391E+01 Y -0.215890E+00 Z -0.457603E+01 (AU)
 B:   4 ZN(  0  0 -1) X -0.397391E+01 Y  0.258269E+01 Z -0.712451E+01 (AU)
 DISTANCE OF THE CENTROID FROM THE ATOMS A,B AND FROM THE A-B BOND:
  0.57328E+00  0.32797E+01  0.25175E+00
 POLARISATION FRACTION (0: COVALENT; 1: VERY IONIC)  0.72785E+00
 ATOMIC POPULATION DATA:
 11 F (  0  0  0)  0.9401   4 ZN(  0  0 -1)  0.0508
 A.O. POPULATIONS OF ATOM   11(  0  0  0):
   0.0015  -0.0078   0.0681   0.1178   0.0749   0.0000   0.2078   0.0124
   0.0000   0.2026   0.0125   0.0000   0.2340   0.0160   0.0000   0.0000
   0.0000   0.0000   0.0000
 A.O. POPULATIONS OF ATOM    4(  0  0 -1):
  -0.0000   0.0000   0.0001  -0.0016   0.0035   0.0191   0.0000   0.0096
   0.0177  -0.0000   0.0000   0.0000   0.0000   0.0001   0.0001   0.0000
   0.0002   0.0000   0.0001   0.0000   0.0007   0.0001   0.0000  -0.0000
   0.0000  -0.0001  -0.0000  -0.0000   0.0002   0.0000   0.0008   0.0001
   0.0000
~~~~~~~~~~~~~~~~~~~~~~~~~~~~~~~~~~~~~~~~~~~~~~~~~~~~~~~~~~~~~~~~~~~~~~~~~~~~~~~~
 WANNIER NUMBER   73 ATOMIC EXTENT  1.1602
 CENTROID'S COORDINATES R0:   -0.39731E+01   -0.46681E+01    0.78542E+00
 EXPECTATION VALUE OF (R-R0)**2:  0.17204E+01
 SECOND ORDER TENSOR IN CARTESIAN AXES:
         X             Y             Z
 X  0.46641E+00  0.77596E-03 -0.15532E-02
 Y  0.77596E-03  0.59889E+00 -0.16590E+00
 Z -0.15532E-02 -0.16590E+00  0.65514E+00
 TENSOR EIGENVALUES:
 A  0.46642E+00  B  0.45873E+00  C  0.79529E+00
 PRINCIPAL AXES:
         X             Y             Z
 A  0.99856E+00 -0.44033E-01 -0.30489E-01
 B  0.53312E-01  0.76266E+00  0.64459E+00
 C -0.51302E-02 -0.64529E+00  0.76392E+00
 BONDING WANNIER FUNCTION BETWEEN ATOMS:
 A:   7 F (  0  0  0) X -0.397391E+01 Y -0.508278E+01 Z  0.124664E+01 (AU)
 B:   3 ZN(  0  0  0) X -0.397391E+01 Y -0.258269E+01 Z -0.158290E+01 (AU)
 DISTANCE OF THE CENTROID FROM THE ATOMS A,B AND FROM THE A-B BOND:
  0.62025E+00  0.31556E+01  0.54473E-02
 POLARISATION FRACTION (0: COVALENT; 1: VERY IONIC)  0.67147E+00
 ATOMIC POPULATION DATA:
  3 ZN(  0  0  0)  0.0717   7 F (  0  0  0)  0.9256
 A.O. POPULATIONS OF ATOM    3(  0  0  0):
  -0.0000  -0.0000   0.0009  -0.0017   0.0041   0.0282   0.0000   0.0151
   0.0217  -0.0000  -0.0000  -0.0000   0.0000   0.0004   0.0005  -0.0000
   0.0000  -0.0000   0.0000   0.0000   0.0003   0.0000   0.0000  -0.0000
   0.0000  -0.0002  -0.0000   0.0000   0.0004   0.0000   0.0018   0.0004
   0.0000
 A.O. POPULATIONS OF ATOM    7(  0  0  0):
   0.0012  -0.0065   0.0554   0.1003   0.0592   0.0000   0.1013   0.1316
   0.0000   0.0973   0.1263   0.0000   0.1130   0.1464   0.0000   0.0000
   0.0001   0.0000   0.0000
~~~~~~~~~~~~~~~~~~~~~~~~~~~~~~~~~~~~~~~~~~~~~~~~~~~~~~~~~~~~~~~~~~~~~~~~~~~~~~~~
 WANNIER NUMBER   74 ATOMIC EXTENT  1.0366
 CENTROID'S COORDINATES R0:   -0.35198E+01   -0.49877E+01    0.15484E+01
 EXPECTATION VALUE OF (R-R0)**2:  0.16342E+01
 SECOND ORDER TENSOR IN CARTESIAN AXES:
         X             Y             Z
 X  0.66759E+00  0.42925E-01  0.17543E+00
 Y  0.42925E-01  0.42188E+00  0.34857E-01
 Z  0.17543E+00  0.34857E-01  0.54477E+00
 TENSOR EIGENVALUES:
 A  0.80011E+00  B  0.41226E+00  C  0.42188E+00
 PRINCIPAL AXES:
         X             Y             Z
 A  0.80626E+00  0.14437E+00  0.57368E+00
 B  0.12646E+00  0.90528E+00 -0.40556E+00
 C -0.57789E+00  0.39954E+00  0.71163E+00
 NON BONDING WANNIER FUNCTION
 DISTANCE CENTROID-ATOM    7(  0  0  0) :   0.55344E+00
 ATOMIC POPULATION DATA:
  2 BA(  0  0  0)  0.0131   7 F (  0  0  0)  0.9821
 A.O. POPULATIONS OF ATOM    2(  0  0  0):
   0.0000  -0.0013   0.0056  -0.0003  -0.0000  -0.0002  -0.0006  -0.0000
  -0.0003   0.0000   0.0004   0.0000   0.0002   0.0001   0.0000   0.0057
   0.0005   0.0024   0.0010
 A.O. POPULATIONS OF ATOM    7(  0  0  0):
   0.0013  -0.0079   0.0693   0.1060   0.0871   0.1622   0.0058   0.0729
   0.1547   0.0050   0.0687   0.1741   0.0055   0.0774   0.0000  -0.0000
   0.0000  -0.0000   0.0000
~~~~~~~~~~~~~~~~~~~~~~~~~~~~~~~~~~~~~~~~~~~~~~~~~~~~~~~~~~~~~~~~~~~~~~~~~~~~~~~~
 WANNIER NUMBER   75 ATOMIC EXTENT  1.1592
 CENTROID'S COORDINATES R0:   -0.39721E+01    0.48739E+01    0.17710E+01
 EXPECTATION VALUE OF (R-R0)**2:  0.17190E+01
 SECOND ORDER TENSOR IN CARTESIAN AXES:
         X             Y             Z
 X  0.46204E+00 -0.11607E-02  0.24196E-02
 Y -0.11607E-02  0.61601E+00 -0.16514E+00
 Z  0.24196E-02 -0.16514E+00  0.64094E+00
 TENSOR EIGENVALUES:
 A  0.46154E+00  B  0.46334E+00  C  0.79410E+00
 PRINCIPAL AXES:
         X             Y             Z
 A  0.85657E+00 -0.37386E+00 -0.35570E+00
 B  0.51598E+00  0.63081E+00  0.57953E+00
 C  0.77195E-02 -0.67994E+00  0.73323E+00
 BONDING WANNIER FUNCTION BETWEEN ATOMS:
 A:   6 F (  0  0  0) X -0.397391E+01 Y  0.530472E+01 Z  0.132544E+01 (AU)
 B:   4 ZN(  0  0  0) X -0.397391E+01 Y  0.258269E+01 Z  0.395870E+01 (AU)
 DISTANCE OF THE CENTROID FROM THE ATOMS A,B AND FROM THE A-B BOND:
  0.61980E+00  0.31679E+01  0.20724E-01
 POLARISATION FRACTION (0: COVALENT; 1: VERY IONIC)  0.67288E+00
 ATOMIC POPULATION DATA:
  4 ZN(  0  0  0)  0.0721   6 F (  0  0  0)  0.9260
 A.O. POPULATIONS OF ATOM    4(  0  0  0):
  -0.0000   0.0000   0.0009  -0.0017   0.0032   0.0298   0.0000   0.0183
   0.0181   0.0000  -0.0000  -0.0000   0.0000   0.0004   0.0004  -0.0000
   0.0000  -0.0000   0.0000   0.0000   0.0002   0.0000   0.0000  -0.0000
   0.0000  -0.0002  -0.0000   0.0000   0.0002   0.0000   0.0019   0.0006
   0.0000
 A.O. POPULATIONS OF ATOM    6(  0  0  0):
   0.0011  -0.0065   0.0551   0.0994   0.0591   0.0000   0.1092   0.1238
   0.0000   0.1053   0.1190   0.0000   0.1224   0.1377   0.0000   0.0000
   0.0001   0.0000   0.0000
~~~~~~~~~~~~~~~~~~~~~~~~~~~~~~~~~~~~~~~~~~~~~~~~~~~~~~~~~~~~~~~~~~~~~~~~~~~~~~~~
 WANNIER NUMBER   76 ATOMIC EXTENT  1.1279
 CENTROID'S COORDINATES R0:   -0.39809E+01   -0.33518E+00    0.81361E+00
 EXPECTATION VALUE OF (R-R0)**2:  0.16971E+01
 SECOND ORDER TENSOR IN CARTESIAN AXES:
         X             Y             Z
 X  0.44499E+00  0.52456E-02  0.96348E-03
 Y  0.52456E-02  0.76191E+00  0.11469E+00
 Z  0.96348E-03  0.11469E+00  0.49025E+00
 TENSOR EIGENVALUES:
 A  0.44469E+00  B  0.80393E+00  C  0.44852E+00
 PRINCIPAL AXES:
         X             Y             Z
 A  0.97036E+00 -0.96199E-01  0.22168E+00
 B  0.14645E-01  0.93907E+00  0.34340E+00
 C -0.24121E+00 -0.32998E+00  0.91265E+00
 BONDING WANNIER FUNCTION BETWEEN ATOMS:
 A:  12 F (  0  0  0) X -0.397391E+01 Y  0.215890E+00 Z  0.965569E+00 (AU)
 B:   3 ZN(  0  0  0) X -0.397391E+01 Y -0.258269E+01 Z -0.158290E+01 (AU)
 DISTANCE OF THE CENTROID FROM THE ATOMS A,B AND FROM THE A-B BOND:
  0.57168E+00  0.32855E+01  0.25878E+00
 POLARISATION FRACTION (0: COVALENT; 1: VERY IONIC)  0.73065E+00
 ATOMIC POPULATION DATA:
  3 ZN(  0  0  0)  0.0509  12 F (  0  0  0)  0.9402
 A.O. POPULATIONS OF ATOM    3(  0  0  0):
  -0.0000  -0.0000   0.0006  -0.0012   0.0032   0.0184   0.0000   0.0094
   0.0176  -0.0000  -0.0000  -0.0000   0.0000   0.0003   0.0004   0.0000
   0.0001  -0.0001   0.0000   0.0000   0.0003   0.0000   0.0000  -0.0000
   0.0000  -0.0002  -0.0000   0.0000   0.0003   0.0000   0.0016   0.0002
  -0.0000
 A.O. POPULATIONS OF ATOM   12(  0  0  0):
   0.0015  -0.0078   0.0679   0.1175   0.0746   0.0000   0.2096   0.0110
   0.0000   0.2044   0.0111   0.0000   0.2360   0.0143   0.0000   0.0000
   0.0000   0.0000   0.0000
~~~~~~~~~~~~~~~~~~~~~~~~~~~~~~~~~~~~~~~~~~~~~~~~~~~~~~~~~~~~~~~~~~~~~~~~~~~~~~~~

 ATOMIC DELOCALISATION INDEX (BEFORE BOYS)     1.026510306    
 NORM        75.9999998232   (ERR PER WF    0.23E-08)
 DIPOLE MOMENT(AU)  0.31791267E+02 -0.12520066E-05  0.17247499E+02
 TTTTTTTTTTTTTTTTTTTTTTTTTTTTTT WRPOP       TELAPSE      202.13 TCPU      202.09
 ------------------------------------------------------------------------------------
 TTTTTTTTTTTTTTTTTTTTTTTTTTTTTT SYMMEND2    TELAPSE      202.15 TCPU      202.10
 TTTTTTTTTTTTTTTTTTTTTTTTTTTTTT LOCALI      TELAPSE      202.15 TCPU      202.11
 ENDPROP   
 TTTTTTTTTTTTTTTTTTTTTTTTTTTTTT END         TELAPSE      202.15 TCPU      202.11
 EEEEEEEEEE TERMINATION  DATE 24 01 2025 TIME 17:03:46.2
------------------------------------------------------
properties finished normally
------------------------------------------------------
Localized Wannier Functions fort.80 saved as /Data/Sachs/projekte/ferroelectric_fluorides/calculations/BaZnF4_oS24_SG63_PBE0_tzvp_wannier/1.wannier
File fort.37 saved as /Data/Sachs/projekte/ferroelectric_fluorides/calculations/BaZnF4_oS24_SG63_PBE0_tzvp_wannier/1.locali
Date: 2025-01-24 17:03:46