Date: 2025-01-24 17:03:46
Running on: AGKraus-Super-Server
Temporary directory: /scratch/sachs//CRY_3585429
Executable: /Data/Software/crystal/crystal23/bin/Linux-ifort_i64/v1.0.1_openmpi//properties
Output: /Data/Sachs/projekte/ferroelectric_fluorides/calculations/BaZnF4_oS24_SG63_PBE0_tzvp_wannier/2.prop.out
Properties input data 2.d3
NEWK
0 8
8 8 5
1 0
LOCALI
END
END
END
Creating temporary directory /scratch/sachs//CRY_3585429 on node AGKraus-Super-Server
SCF wavefunction 2.w is available as /scratch/sachs//CRY_3585429/fort.9

         
 *******************************************************************************
 *                                                                             *
 *                               CRYSTAL23                                     *
 *                      public : 1.0.1 - October 2022                          *
 *                       HTTP://WWW.CRYSTAL.UNITO.IT                           *
 *                                                                             *
 *                              MAIN AUTHORS                                   *
 *                                                                             *
 *  R. DOVESI(1,11), V.R. SAUNDERS(2), C. ROETTI(1,11), R. ORLANDO(1,11),      *
 *  C.M. ZICOVICH-WILSON(1,3), F. PASCALE(4), B. CIVALLERI(1,11),              *
 *  K. DOLL(5), N.M. HARRISON(6), I.J. BUSH(7), Ph. D'ARCO(8),                 *
 *  M. LLUNELL(9), M. CAUSA'(10), Y. NOEL(8), L. MASCHIO(1,11), A. ERBA(1,11)  *
 *  M. RE'RAT(14), S. CASASSA(1,11), B.G. SEARLE(2), J.K. DESMARAIS(1)         *
 *                                                                             *
 *        CONTRIBUTIONS TO THE CODE HAVE ALSO BEEN GIVEN BY                    *
 *                                                                             *
 *  M. FERRABONE(1,11), M. DE LA PIERRE(1,11), M. FERRERO(1,11),               *
 *  J. BAIMA(1,11), E. ALBANESE(1,11), M.F. PEINTINGER(12), R. BAST(13),       *
 *  B. KIRTMAN(15), V. LACIVITA(1,11), R. DEMICHELIS(1,16)                     *
 *  G. BRANDEBURG(17), S. SALUSTRO(1,11), G. SANSONE(1,11)                     *
 *  M.T. RUGGIERO(18), L.E. DAGA(1), L. DONA'(1), A. COSSARD(1)                *
 *                                                                             *
 * (1) THEORETICAL CHEMISTRY GROUP - UNIVERSITA' DI TORINO - TORINO (ITALY)    *
 * (2) SCIENTIFIC COMPUTING DEPARTMENT - STFC DARESBURY (UK)                   *
 * (3) UNIVERSIDAD AUTONOMA DEL ESTADO DE MORELOS - CUERNAVACA (MEXICO)        *
 * (4) UNIVERSITE' DE LORRAINE - NANCY (FRANCE)                                *
 * (5) UNIVERSITAET STUTTGART- STUTTGART (GERMANY)                             *
 * (6) IMPERIAL COLLEGE - LONDON (UK)                                          *
 * (7) SCIENTIFIC COMPUTING DEPARTMENT - STFC RAL (UK)                         *
 * (8) UPMC - SORBONNE UNIVERSITES - PARIS (FRANCE)                            *
 * (9) UNIVERSIDAD DE BARCELONA - BARCELONA (SPAIN)                            *
 *(10) UNIVERSITA' DI NAPOLI "FEDERICO II" - NAPOLI (ITALY)                    *
 *(11) NIS - NANOSTRUCTURED INTERFACES AND SURFACES - TORINO (ITALY)           *
 *(12) MPI FUER CHEMISCHE ENERGIEKONVERSION - MUELHEIM AN DER RUHR (GERMANY)   *
 *(13) UNIVERSITY OF TROMSO - TROMSO (NORWAY)                                  *
 *(14) UNIVERSITE' DE PAU ET DES PAYS DE L'ADOUR - PAU (FRANCE)                *
 *(15) UNIVERSITY OF CALIFORNIA SANTA BARBARA - SANTA BARBARA (USA)            *
 *(16) CURTIN UNIVERSITY - PERTH (AUSTRALIA)                                   *
 *(17) UNIVERSITY COLLEGE LONDON - LONDON (UK)                                 *
 *(18) UNIVERSITY OF VERMONT - BURLINGTON (USA)                                *
 *                                                                             *
 *******************************************************************************
 EEEEEEEEEE STARTING  DATE 24 01 2025 TIME 17:03:46.3
 INFORMATION **** SET_MPP **** PCRYSTAL CALCULATION

 *******************************************************************************
 Polarisation path Nr. 2.                                                        
 CRYSTAL - PROPERTIES - TYPE OF CALCULATION :  RESTRICTED CLOSED SHELL
 *******************************************************************************
 KOHN-SHAM HAMILTONIAN

 (EXCHANGE)[CORRELATION] FUNCTIONAL:(PERDEW-BURKE-ERNZERHOF)[PERDEW-BURKE-ERNZERHOF]


 HYBRID EXCHANGE - PERCENTAGE OF FOCK EXCHANGE    25.0000

 DIRECT LATTICE VECTOR COMPONENTS (ANGSTROM)
         2.10290    7.28597    0.00000
        -2.10290    7.28597    0.00000
         0.00000    0.00000    5.86498

 LATTICE PARAMETERS  (ANGSTROM AND DEGREES) - PRIMITIVE CELL
       A          B          C         ALPHA      BETA     GAMMA        VOLUME
    7.58337    7.58337    5.86498     90.0000   90.0000   32.1988     179.72270
 *******************************************************************************
 N. OF ATOMS PER CELL        12 COULOMB OVERLAP TOL          (T1) 10**   -8
 NUMBER OF SHELLS           100 COULOMB PENETRATION TOL      (T2) 10**   -8
 NUMBER OF AO               256 EXCHANGE OVERLAP TOL         (T3) 10**   -8
 N. OF ELECTRONS PER CELL   152 EXCHANGE PSEUDO OVP (F(G))   (T4) 10**   -8
 CORE ELECTRONS PER CELL     52 EXCHANGE PSEUDO OVP (P(G))   (T5) 10**  -16
 N. OF SYMMETRY OPERATORS     4 POLE ORDER IN MONO ZONE                   4
 CORE  PSEUDO POTENTIAL         TOL. ON PSEUDO              (TP) 10**- 6
 *******************************************************************************
   ATOM N.AT.  SHELL    X(A)      Y(A)      Z(A)      EXAD       N.ELECT.
 *******************************************************************************
    1  256 BA    6    -0.000     2.110    -0.778   2.732E-01       8.287
    2  256 BA    6     0.000    -2.110     2.154   2.732E-01       8.287
    3   30 ZN   12    -2.103    -1.332    -0.897   3.903E-01      28.867
    4   30 ZN   12    -2.103     1.332     2.036   3.903E-01      28.867
    5    9 F     8    -2.103    -2.840    -2.218   1.400E+00       9.734
    6    9 F     8    -2.103     2.840     0.714   1.400E+00       9.734
    7    9 F     8    -2.103    -2.605     0.632   1.400E+00       9.734
    8    9 F     8    -2.103     2.605    -2.300   1.400E+00       9.734
    9    9 F     8    -0.000     1.162     1.991   1.400E+00       9.696
   10    9 F     8     0.000    -1.162    -0.942   1.400E+00       9.696
   11    9 F     8    -2.103    -0.228    -2.598   1.400E+00       9.682
   12    9 F     8    -2.103     0.228     0.334   1.400E+00       9.682
 *******************************************************************************
 DE(K)                   0.000E+00  ENERGY LEVEL SHIFTING        0.00000
 TOTAL ENERGY -4.4084071068911E+03  CONVERGENCE ON ENER        1.741E-08
 KIN. ENERGY   4.3659565466253E+03  VIR. COEFF.           1.01557760E+00
 N. OF SCF CYCLES                9  FERMI ENERGY              -0.247E+00
 WEIGHT OF F(I) IN F(I+1)      80
 SHRINK. FACT.(MONKH.)     8  8  5  SHRINKING FACTOR(GILAT NET)        8
 NUMBER OF K POINTS IN THE IBZ  63  CELL VOLUME (A.U.)       1212.828899
 *******************************************************************************

 GCALCO - MAX INDICES DIRECT LATTICE VECTOR    16    16    11
 NO.OF VECTORS CREATED 6999 STARS 1033 RMAX   126.66320 BOHR
 TTTTTTTTTTTTTTTTTTTTTTTTTTTTTT gordsh1     TELAPSE        0.05 TCPU        0.05

 MATRIX SIZE: P(G)  374176, F(G)   64660, P(G) IRR   59817, F(G) IRR   22324
 MAX G-VECTOR INDEX FOR 1- AND 2-ELECTRON INTEGRALS 101


 CAPPA:IS1  8;IS2  8;IS3  5; K PTS MONK NET  63; SYMMOPS:K SPACE   8;G SPACE   4


 CAPPA:IS1  8;IS2  8;IS3  5; K PTS MONK NET  63; SYMMOPS:K SPACE   8;G SPACE   4

 *******************************************************************************
 RESTART WITH NEW K POINTS NET
 *******************************************************************************
 POINTS IN THE IBZ                  63 POINTS(GILAT NET)                63
 SHRINK FACTORS(MONK.)         8  8  5 SHRINK FACTOR(GILAT)              8
 *******************************************************************************
 *** K POINTS COORDINATES (OBLIQUE COORDINATES IN UNITS OF IS =  8)
   1-R(  0  0  0)   2-C(  1  0  0)   3-C(  2  0  0)   4-C(  3  0  0)
   5-R(  4  0  0)   6-C(  1  1  0)   7-C(  2  1  0)   8-C(  3  1  0)
   9-C(  4  1  0)  10-C(  5  1  0)  11-C(  6  1  0)  12-C(  7  1  0)
  13-C(  2  2  0)  14-C(  3  2  0)  15-C(  4  2  0)  16-C(  5  2  0)
  17-C(  6  2  0)  18-C(  3  3  0)  19-C(  4  3  0)  20-C(  5  3  0)
  21-R(  4  4  0)  22-C(  0  0  1)  23-C(  1  0  1)  24-C(  2  0  1)
  25-C(  3  0  1)  26-C(  4  0  1)  27-C(  1  1  1)  28-C(  2  1  1)
  29-C(  3  1  1)  30-C(  4  1  1)  31-C(  5  1  1)  32-C(  6  1  1)
  33-C(  7  1  1)  34-C(  2  2  1)  35-C(  3  2  1)  36-C(  4  2  1)
  37-C(  5  2  1)  38-C(  6  2  1)  39-C(  3  3  1)  40-C(  4  3  1)
  41-C(  5  3  1)  42-C(  4  4  1)  43-C(  0  0  2)  44-C(  1  0  2)
  45-C(  2  0  2)  46-C(  3  0  2)  47-C(  4  0  2)  48-C(  1  1  2)
  49-C(  2  1  2)  50-C(  3  1  2)  51-C(  4  1  2)  52-C(  5  1  2)
  53-C(  6  1  2)  54-C(  7  1  2)  55-C(  2  2  2)  56-C(  3  2  2)
  57-C(  4  2  2)  58-C(  5  2  2)  59-C(  6  2  2)  60-C(  3  3  2)
  61-C(  4  3  2)  62-C(  5  3  2)  63-C(  4  4  2)

 FERMI ENERGY AND DENSITY MATRIX CALCULATION ON COMPUTED EIGENVECTORS
 DENSITY MATRIX AT SCF CYCLE (  9+1)

 INSULATING STATE
 TOP OF VALENCE BANDS -    BAND     76; K    1; EIG -2.4709810E-01 AU
 BOTTOM OF VIRTUAL BANDS - BAND     77; K    1; EIG  6.2428114E-02 AU
 DIRECT ENERGY BAND GAP:   8.4226 eV

 CORE DENSITY MATRIX CALCULATION
 TTTTTTTTTTTTTTTTTTTTTTTTTTTTTT NEWK        TELAPSE        7.21 TCPU        7.21
 INSULATING STATE
 TOP OF VALENCE BANDS -    BAND     76; K    1; EIG -2.4709810E-01 AU
 BOTTOM OF VIRTUAL BANDS - BAND     77; K    1; EIG  6.2428114E-02 AU
 DIRECT ENERGY BAND GAP:   8.4226 eV

 LOCALISATION OF THE CRYSTALLINE ORBITALS
 ACCORDING TO A WANNIER-BOYS MIXED SCHEME

 LIST OF ACTIVE BANDS
      1     2     3     4     5     6     7     8     9    10    11    12    13
     14    15    16    17    18    19    20    21    22    23    24    25    26
     27    28    29    30    31    32    33    34    35    36    37    38    39
     40    41    42    43    44    45    46    47    48    49    50    51    52
     53    54    55    56    57    58    59    60    61    62    63    64    65
     66    67    68    69    70    71    72    73    74    75    76

 CONVERGENCE CRITERION: ABS(ADI(N) - ADI(N-1)) LT  0.1000E-04
 WHERE ADI IS THE ATOMIC DELOCALISATION INDEX AND N IS THE CYCLE NUMBER

 OMEGA IS THE SUM OF THE (X -X0)**2 EXPECTATION VALUES (MARZARI-VANDERBILT'S
 FUNCTIONAL)
 N OF CELLS IN THE MAXIMUM CYCLIC AND UNFOLDED CLUSTERS:  320  975
 N OF VERTICES IN THE UNFOLDED CLUSTER:  2
 TTTTTTTTTTTTTTTTTTTTTTTTTTTTTT SDKVDK      TELAPSE        7.68 TCPU        7.68

 *******************************************************************************
 CYCLE  1, DIPOLE MATRIX ELEMENTS EVALUATED WHEN WANNIER COEFF GT 10**-5
 AUTOMATIC INITIAL GUESS REQUESTED
 TTTTTTTTTTTTTTTTTTTTTTTTTTTTTT WAN0        TELAPSE        9.83 TCPU        9.83
 CLUSTER SIZE =  169 UNIT CELLS
 TTTTTTTTTTTTTTTTTTTTTTTTTTTTTT WANTOL      TELAPSE       10.22 TCPU       10.22
 TTTTTTTTTTTTTTTTTTTTTTTTTTTTTT BOYS1       TELAPSE       49.00 TCPU       49.00

 ATOMIC DELOCALISATION INDEX (BEFORE BOYS)     2.867692212    
 NORM        75.9999971448   (ERR PER WF    0.38E-07)
 BOYS LOCALISED FUNCTIONS AFTER  118 CYCLES (MAX = 500 TOL = 0.1E-07)

 SUM OF THE SQUARES OF THE DISTANCES BETWEEN CENTROIDS = 140374.    
 TTTTTTTTTTTTTTTTTTTTTTTTTTTTTT BOYS3       TELAPSE       49.09 TCPU       49.08
 OMEGA =   91.94183833          ABS(OMEGA(N)-OMEGA(N-1)) =   0.91942E+02
 TTTTTTTTTTTTTTTTTTTTTTTTTTTTTT BOYS1       TELAPSE       53.51 TCPU       53.51

 ATOMIC DELOCALISATION INDEX (AFTER  BOYS)     1.026773266    
 NORM        75.9999971448   (ERR PER WF    0.38E-07)
 TTTTTTTTTTTTTTTTTTTTTTTTTTTTTT WANTST      TELAPSE       53.51 TCPU       53.51

 *******************************************************************************
 CYCLE  2, DIPOLE MATRIX ELEMENTS EVALUATED WHEN WANNIER COEFF GT 10**-5
 TTTTTTTTTTTTTTTTTTTTTTTTTTTTTT WAN0        TELAPSE       55.54 TCPU       55.54
 CLUSTER SIZE =  169 UNIT CELLS
 TTTTTTTTTTTTTTTTTTTTTTTTTTTTTT WANTOL      TELAPSE       55.89 TCPU       55.89
 TTTTTTTTTTTTTTTTTTTTTTTTTTTTTT BOYS1       TELAPSE       93.79 TCPU       93.79

 ATOMIC DELOCALISATION INDEX (BEFORE BOYS)     1.025648387    
 NORM        75.9999997580   (ERR PER WF    0.32E-08)
 BOYS LOCALISED FUNCTIONS AFTER   11 CYCLES (MAX = 500 TOL = 0.1E-07)

 SUM OF THE SQUARES OF THE DISTANCES BETWEEN CENTROIDS = 140391.    
 TTTTTTTTTTTTTTTTTTTTTTTTTTTTTT BOYS3       TELAPSE       93.80 TCPU       93.80
 OMEGA =   89.90338660          ABS(OMEGA(N)-OMEGA(N-1)) =   0.20385E+01
 TTTTTTTTTTTTTTTTTTTTTTTTTTTTTT BOYS1       TELAPSE       98.13 TCPU       98.13

 ATOMIC DELOCALISATION INDEX (AFTER  BOYS)     1.026170119    
 NORM        75.9999997580   (ERR PER WF    0.32E-08)
 TTTTTTTTTTTTTTTTTTTTTTTTTTTTTT WANTST      TELAPSE       98.13 TCPU       98.13

 *******************************************************************************
 CYCLE  3, DIPOLE MATRIX ELEMENTS EVALUATED WHEN WANNIER COEFF GT 10**-5
 TTTTTTTTTTTTTTTTTTTTTTTTTTTTTT WAN0        TELAPSE      100.14 TCPU      100.14
 CLUSTER SIZE =  169 UNIT CELLS
 TTTTTTTTTTTTTTTTTTTTTTTTTTTTTT WANTOL      TELAPSE      100.49 TCPU      100.49
 TTTTTTTTTTTTTTTTTTTTTTTTTTTTTT BOYS1       TELAPSE      138.54 TCPU      138.54

 ATOMIC DELOCALISATION INDEX (BEFORE BOYS)     1.025647075    
 NORM        75.9999997568   (ERR PER WF    0.32E-08)
 BOYS LOCALISED FUNCTIONS AFTER    5 CYCLES (MAX = 500 TOL = 0.1E-07)

 SUM OF THE SQUARES OF THE DISTANCES BETWEEN CENTROIDS = 140391.    
 TTTTTTTTTTTTTTTTTTTTTTTTTTTTTT BOYS3       TELAPSE      138.54 TCPU      138.54
 OMEGA =   89.90328197          ABS(OMEGA(N)-OMEGA(N-1)) =   0.10464E-03
 TTTTTTTTTTTTTTTTTTTTTTTTTTTTTT BOYS1       TELAPSE      142.93 TCPU      142.93

 ATOMIC DELOCALISATION INDEX (AFTER  BOYS)     1.026170092    
 NORM        75.9999997568   (ERR PER WF    0.32E-08)
 TTTTTTTTTTTTTTTTTTTTTTTTTTTTTT WANTST      TELAPSE      142.94 TCPU      142.93

 *******************************************************************************
 FINAL RESULTS 

 WANNIER F LOCALIZATION - CONVERGENCE ACHIEVED     0.2643E-07
 TTTTTTTTTTTTTTTTTTTTTTTTTTTTTT BOYS1       TELAPSE      199.80 TCPU      199.79

 WANNIER ATOMIC POPULATIONS LARGER THAN   0.10E-01 ARE GIVEN
 DATA ARE AS FOLLOWS: ATOM, CELL INDICES AND ATOMIC POPULATION

~~~~~~~~~~~~~~~~~~~~~~~~~~~~~~~~~~~~~~~~~~~~~~~~~~~~~~~~~~~~~~~~~~~~~~~~~~~~~~~~
 WANNIER NUMBER    1 ATOMIC EXTENT  0.9990
 CENTROID'S COORDINATES R0:   -0.43145E+01   -0.22132E+01   -0.18743E+01
 EXPECTATION VALUE OF (R-R0)**2:  0.59189E+00
 SECOND ORDER TENSOR IN CARTESIAN AXES:
         X             Y             Z
 X  0.21885E+00 -0.53927E-01  0.39512E-01
 Y -0.53927E-01  0.21091E+00 -0.25843E-01
 Z  0.39512E-01 -0.25843E-01  0.16213E+00
 TENSOR EIGENVALUES:
 A  0.28645E+00  B  0.16368E+00  C  0.14177E+00
 PRINCIPAL AXES:
         X             Y             Z
 A  0.70075E+00 -0.62066E+00  0.35175E+00
 B  0.52487E+00  0.78247E+00  0.33502E+00
 C -0.48317E+00 -0.50143E-01  0.87409E+00
 NON BONDING WANNIER FUNCTION
 DISTANCE CENTROID-ATOM    3(  0  0  0) :   0.49103E+00
 ATOMIC POPULATION DATA:
  3 ZN(  0  0  0)  1.0005
 A.O. POPULATIONS OF ATOM    3(  0  0  0):
  -0.0000  -0.0043   0.0692   0.0491   0.0015   0.0008  -0.0002   0.0003
   0.0001  -0.0052  -0.0039  -0.0013   0.1430   0.1095   0.0352   0.0356
   0.0275   0.0088   0.0165   0.0350   0.0610   0.0046   0.1749   0.0099
   0.0211   0.0361   0.0027   0.1051   0.0039   0.0084   0.0131   0.0009
   0.0415
~~~~~~~~~~~~~~~~~~~~~~~~~~~~~~~~~~~~~~~~~~~~~~~~~~~~~~~~~~~~~~~~~~~~~~~~~~~~~~~~
 WANNIER NUMBER    2 ATOMIC EXTENT  0.9972
 CENTROID'S COORDINATES R0:   -0.37003E+01    0.27080E+01    0.42056E+01
 EXPECTATION VALUE OF (R-R0)**2:  0.59072E+00
 SECOND ORDER TENSOR IN CARTESIAN AXES:
         X             Y             Z
 X  0.19997E+00  0.32494E-01  0.43987E-01
 Y  0.32494E-01  0.16103E+00  0.38058E-01
 Z  0.43987E-01  0.38058E-01  0.22971E+00
 TENSOR EIGENVALUES:
 A  0.16892E+00  B  0.13992E+00  C  0.28188E+00
 PRINCIPAL AXES:
         X             Y             Z
 A  0.76715E+00  0.11998E+00 -0.63015E+00
 B -0.32970E+00  0.91641E+00 -0.22690E+00
 C  0.55025E+00  0.38183E+00  0.74258E+00
 NON BONDING WANNIER FUNCTION
 DISTANCE CENTROID-ATOM    4(  0  0  0) :   0.48969E+00
 ATOMIC POPULATION DATA:
  4 ZN(  0  0  0)  1.0014
 A.O. POPULATIONS OF ATOM    4(  0  0  0):
  -0.0001  -0.0043   0.0707   0.0499   0.0014  -0.0001   0.0004   0.0000
   0.0003  -0.0033  -0.0014  -0.0056   0.0911   0.0399   0.1564   0.0229
   0.0100   0.0388   0.0183   0.1745   0.0719   0.0013   0.0261   0.0109
   0.1048   0.0424   0.0008   0.0157   0.0041   0.0419   0.0153   0.0003
   0.0062
~~~~~~~~~~~~~~~~~~~~~~~~~~~~~~~~~~~~~~~~~~~~~~~~~~~~~~~~~~~~~~~~~~~~~~~~~~~~~~~~
 WANNIER NUMBER    3 ATOMIC EXTENT  0.9994
 CENTROID'S COORDINATES R0:   -0.43451E+01    0.22016E+01    0.37987E+01
 EXPECTATION VALUE OF (R-R0)**2:  0.59439E+00
 SECOND ORDER TENSOR IN CARTESIAN AXES:
         X             Y             Z
 X  0.23014E+00  0.69354E-01  0.16301E-01
 Y  0.69354E-01  0.20539E+00 -0.34259E-04
 Z  0.16301E-01 -0.34259E-04  0.15886E+00
 TENSOR EIGENVALUES:
 A  0.28941E+00  B  0.14083E+00  C  0.16414E+00
 PRINCIPAL AXES:
         X             Y             Z
 A  0.76769E+00  0.63364E+00  0.95689E-01
 B -0.57964E+00  0.62295E+00  0.52531E+00
 C  0.27324E+00 -0.45874E+00  0.84552E+00
 NON BONDING WANNIER FUNCTION
 DISTANCE CENTROID-ATOM    4(  0  0  0) :   0.49006E+00
 ATOMIC POPULATION DATA:
  4 ZN(  0  0  0)  1.0003
 A.O. POPULATIONS OF ATOM    4(  0  0  0):
  -0.0000  -0.0043   0.0691   0.0491   0.0014   0.0009  -0.0002   0.0001
   0.0001  -0.0062  -0.0043  -0.0001   0.1705   0.1163   0.0022   0.0425
   0.0290   0.0006   0.0866   0.0012   0.0117   0.0056   0.1857   0.0518
   0.0007   0.0070   0.0033   0.1116   0.0200   0.0003   0.0027   0.0010
   0.0441
~~~~~~~~~~~~~~~~~~~~~~~~~~~~~~~~~~~~~~~~~~~~~~~~~~~~~~~~~~~~~~~~~~~~~~~~~~~~~~~~
 WANNIER NUMBER    4 ATOMIC EXTENT  1.0000
 CENTROID'S COORDINATES R0:   -0.39395E+01   -0.25500E+01   -0.17855E+01
 EXPECTATION VALUE OF (R-R0)**2:  0.41861E-01
 SECOND ORDER TENSOR IN CARTESIAN AXES:
         X             Y             Z
 X  0.12991E-01 -0.46451E-03 -0.13080E-02
 Y -0.46451E-03  0.12930E-01  0.12151E-02
 Z -0.13080E-02  0.12151E-02  0.15940E-01
 TENSOR EIGENVALUES:
 A  0.12502E-01  B  0.12493E-01  C  0.16866E-01
 PRINCIPAL AXES:
         X             Y             Z
 A  0.24398E+00 -0.88146E+00  0.40435E+00
 B  0.90926E+00  0.35291E+00  0.22068E+00
 C -0.33722E+00  0.31381E+00  0.88758E+00
 NON BONDING WANNIER FUNCTION
 DISTANCE CENTROID-ATOM    3(  0  0  0) :   0.10214E+00
 ATOMIC POPULATION DATA:
  3 ZN(  0  0  0)  1.0000
 A.O. POPULATIONS OF ATOM    3(  0  0  0):
  -0.0063   0.2658  -0.0035  -0.0063   0.0003  -0.0001  -0.0000  -0.0000
  -0.0000   0.0873   0.0757   0.6077  -0.0024  -0.0021  -0.0164   0.0000
   0.0000   0.0001   0.0000   0.0000   0.0000   0.0000   0.0000   0.0000
   0.0000   0.0000   0.0000   0.0000   0.0000   0.0000   0.0000   0.0000
   0.0000
~~~~~~~~~~~~~~~~~~~~~~~~~~~~~~~~~~~~~~~~~~~~~~~~~~~~~~~~~~~~~~~~~~~~~~~~~~~~~~~~
 WANNIER NUMBER    5 ATOMIC EXTENT  1.0000
 CENTROID'S COORDINATES R0:   -0.39739E+01    0.25180E+01    0.38468E+01
 EXPECTATION VALUE OF (R-R0)**2:  0.45789E-02
 SECOND ORDER TENSOR IN CARTESIAN AXES:
         X             Y             Z
 X  0.15260E-02  0.15652E-06  0.69045E-07
 Y  0.15652E-06  0.15268E-02  0.13894E-06
 Z  0.69045E-07  0.13894E-06  0.15262E-02
 TENSOR EIGENVALUES:
 A  0.15259E-02  B  0.15268E-02  C  0.15261E-02
 PRINCIPAL AXES:
         X             Y             Z
 A  0.97149E+00 -0.13543E+00 -0.19461E+00
 B  0.17669E+00  0.96086E+00  0.21336E+00
 C  0.15810E+00 -0.24167E+00  0.95739E+00
 NON BONDING WANNIER FUNCTION
 DISTANCE CENTROID-ATOM    4(  0  0  0) :   0.32597E-06
 ATOMIC POPULATION DATA:
  4 ZN(  0  0  0)  1.0000
 A.O. POPULATIONS OF ATOM    4(  0  0  0):
   1.0253  -0.0251  -0.0007   0.0005  -0.0001   0.0000   0.0000   0.0000
  -0.0000   0.0000   0.0000   0.0000   0.0000   0.0000   0.0000  -0.0000
   0.0000   0.0000   0.0000   0.0000   0.0000   0.0000   0.0000   0.0000
   0.0000   0.0000  -0.0000   0.0000  -0.0000   0.0000  -0.0000  -0.0000
   0.0000
~~~~~~~~~~~~~~~~~~~~~~~~~~~~~~~~~~~~~~~~~~~~~~~~~~~~~~~~~~~~~~~~~~~~~~~~~~~~~~~~
 WANNIER NUMBER    6 ATOMIC EXTENT  1.0000
 CENTROID'S COORDINATES R0:   -0.39739E+01   -0.25180E+01   -0.16948E+01
 EXPECTATION VALUE OF (R-R0)**2:  0.45784E-02
 SECOND ORDER TENSOR IN CARTESIAN AXES:
         X             Y             Z
 X  0.15243E-02 -0.46837E-06  0.90651E-07
 Y -0.46837E-06  0.15271E-02 -0.11958E-06
 Z  0.90651E-07 -0.11958E-06  0.15271E-02
 TENSOR EIGENVALUES:
 A  0.15242E-02  B  0.15272E-02  C  0.15270E-02
 PRINCIPAL AXES:
         X             Y             Z
 A  0.98649E+00  0.16202E+00 -0.24316E-01
 B -0.13973E+00  0.75458E+00 -0.64116E+00
 C -0.85531E-01  0.63589E+00  0.76702E+00
 NON BONDING WANNIER FUNCTION
 DISTANCE CENTROID-ATOM    3(  0  0  0) :   0.17763E-06
 ATOMIC POPULATION DATA:
  3 ZN(  0  0  0)  1.0000
 A.O. POPULATIONS OF ATOM    3(  0  0  0):
   1.0253  -0.0251  -0.0007   0.0005  -0.0001   0.0000   0.0000   0.0000
   0.0000   0.0000   0.0000   0.0000   0.0000   0.0000  -0.0000  -0.0000
   0.0000  -0.0000   0.0000   0.0000   0.0000   0.0000   0.0000   0.0000
   0.0000   0.0000   0.0000   0.0000  -0.0000   0.0000  -0.0000  -0.0000
   0.0000
~~~~~~~~~~~~~~~~~~~~~~~~~~~~~~~~~~~~~~~~~~~~~~~~~~~~~~~~~~~~~~~~~~~~~~~~~~~~~~~~
 WANNIER NUMBER    7 ATOMIC EXTENT  1.0000
 CENTROID'S COORDINATES R0:   -0.39165E+01    0.25827E+01    0.39010E+01
 EXPECTATION VALUE OF (R-R0)**2:  0.41822E-01
 SECOND ORDER TENSOR IN CARTESIAN AXES:
         X             Y             Z
 X  0.13902E-01  0.15535E-02  0.12789E-02
 Y  0.15535E-02  0.14215E-01  0.14461E-02
 Z  0.12789E-02  0.14461E-02  0.13705E-01
 TENSOR EIGENVALUES:
 A  0.12483E-01  B  0.16817E-01  C  0.12521E-01
 PRINCIPAL AXES:
         X             Y             Z
 A  0.38487E+00 -0.77016E+00  0.50866E+00
 B  0.56803E+00  0.63202E+00  0.52715E+00
 C -0.72747E+00  0.86050E-01  0.68072E+00
 NON BONDING WANNIER FUNCTION
 DISTANCE CENTROID-ATOM    4(  0  0  0) :   0.10216E+00
 ATOMIC POPULATION DATA:
  4 ZN(  0  0  0)  1.0000
 A.O. POPULATIONS OF ATOM    4(  0  0  0):
  -0.0063   0.2658  -0.0035  -0.0063   0.0004  -0.0001  -0.0000  -0.0000
  -0.0000   0.2435   0.3097   0.2173  -0.0066  -0.0083  -0.0058   0.0000
   0.0000   0.0000   0.0000   0.0000   0.0000   0.0000   0.0000   0.0000
   0.0000   0.0000   0.0000   0.0000   0.0000   0.0000   0.0000   0.0000
   0.0000
~~~~~~~~~~~~~~~~~~~~~~~~~~~~~~~~~~~~~~~~~~~~~~~~~~~~~~~~~~~~~~~~~~~~~~~~~~~~~~~~
 WANNIER NUMBER    8 ATOMIC EXTENT  0.9930
 CENTROID'S COORDINATES R0:   -0.39939E+01   -0.21297E+01   -0.14447E+01
 EXPECTATION VALUE OF (R-R0)**2:  0.62676E+00
 SECOND ORDER TENSOR IN CARTESIAN AXES:
         X             Y             Z
 X  0.13889E+00 -0.73996E-02 -0.56429E-03
 Y -0.73996E-02  0.26880E+00  0.60798E-01
 Z -0.56429E-03  0.60798E-01  0.21907E+00
 TENSOR EIGENVALUES:
 A  0.13831E+00  B  0.30986E+00  C  0.17858E+00
 PRINCIPAL AXES:
         X             Y             Z
 A  0.99513E+00  0.81932E-01 -0.54730E-01
 B -0.37767E-01  0.83022E+00  0.55616E+00
 C  0.91005E-01 -0.55138E+00  0.82927E+00
 NON BONDING WANNIER FUNCTION
 DISTANCE CENTROID-ATOM    3(  0  0  0) :   0.46230E+00
 ATOMIC POPULATION DATA:
  3 ZN(  0  0  0)  1.0035
 A.O. POPULATIONS OF ATOM    3(  0  0  0):
  -0.0000  -0.0038   0.0610   0.0430   0.0011  -0.0008  -0.0000   0.0002
   0.0001  -0.0000  -0.0065  -0.0028   0.0005   0.1771   0.0730   0.0001
   0.0440   0.0183   0.0078   0.0012   0.2400   0.0825   0.0005   0.0046
   0.0007   0.1416   0.0491   0.0003   0.0018   0.0003   0.0503   0.0181
   0.0001
~~~~~~~~~~~~~~~~~~~~~~~~~~~~~~~~~~~~~~~~~~~~~~~~~~~~~~~~~~~~~~~~~~~~~~~~~~~~~~~~
 WANNIER NUMBER    9 ATOMIC EXTENT  1.0000
 CENTROID'S COORDINATES R0:   -0.39061E+01   -0.25420E+01   -0.16223E+01
 EXPECTATION VALUE OF (R-R0)**2:  0.41824E-01
 SECOND ORDER TENSOR IN CARTESIAN AXES:
         X             Y             Z
 X  0.14417E-01 -0.69619E-03  0.20249E-02
 Y -0.69619E-03  0.12746E-01 -0.72435E-03
 Z  0.20249E-02 -0.72435E-03  0.14661E-01
 TENSOR EIGENVALUES:
 A  0.16816E-01  B  0.12493E-01  C  0.12516E-01
 PRINCIPAL AXES:
         X             Y             Z
 A  0.66600E+00 -0.23966E+00  0.70640E+00
 B  0.49346E+00  0.85172E+00 -0.17628E+00
 C -0.55941E+00  0.46598E+00  0.68551E+00
 NON BONDING WANNIER FUNCTION
 DISTANCE CENTROID-ATOM    3(  0  0  0) :   0.10216E+00
 ATOMIC POPULATION DATA:
  3 ZN(  0  0  0)  1.0000
 A.O. POPULATIONS OF ATOM    3(  0  0  0):
  -0.0063   0.2658  -0.0035  -0.0063   0.0004  -0.0001  -0.0000  -0.0000
  -0.0000   0.3392   0.0428   0.3886  -0.0091  -0.0012  -0.0104   0.0000
   0.0000   0.0000   0.0000   0.0000   0.0000   0.0000   0.0000   0.0000
   0.0000   0.0000   0.0000   0.0000   0.0000   0.0000   0.0000   0.0000
   0.0000
~~~~~~~~~~~~~~~~~~~~~~~~~~~~~~~~~~~~~~~~~~~~~~~~~~~~~~~~~~~~~~~~~~~~~~~~~~~~~~~~
 WANNIER NUMBER   10 ATOMIC EXTENT  1.0000
 CENTROID'S COORDINATES R0:   -0.39952E+01    0.24357E+01    0.39034E+01
 EXPECTATION VALUE OF (R-R0)**2:  0.41853E-01
 SECOND ORDER TENSOR IN CARTESIAN AXES:
         X             Y             Z
 X  0.12671E-01  0.73308E-03 -0.52374E-03
 Y  0.73308E-03  0.15320E-01 -0.19787E-02
 Z -0.52374E-03 -0.19787E-02  0.13861E-01
 TENSOR EIGENVALUES:
 A  0.12491E-01  B  0.16892E-01  C  0.12470E-01
 PRINCIPAL AXES:
         X             Y             Z
 A  0.64945E+00 -0.54154E+00 -0.53380E+00
 B  0.20876E+00  0.80201E+00 -0.55965E+00
 C  0.73119E+00  0.25203E+00  0.63391E+00
 NON BONDING WANNIER FUNCTION
 DISTANCE CENTROID-ATOM    4(  0  0  0) :   0.10215E+00
 ATOMIC POPULATION DATA:
  4 ZN(  0  0  0)  1.0000
 A.O. POPULATIONS OF ATOM    4(  0  0  0):
  -0.0063   0.2658  -0.0035  -0.0063   0.0003  -0.0001  -0.0000  -0.0000
  -0.0000   0.0335   0.5001   0.2370  -0.0009  -0.0135  -0.0064   0.0000
   0.0001   0.0000   0.0000   0.0000   0.0000   0.0000   0.0000   0.0000
   0.0000   0.0000   0.0000   0.0000   0.0000   0.0000   0.0000   0.0000
   0.0000
~~~~~~~~~~~~~~~~~~~~~~~~~~~~~~~~~~~~~~~~~~~~~~~~~~~~~~~~~~~~~~~~~~~~~~~~~~~~~~~~
 WANNIER NUMBER   11 ATOMIC EXTENT  0.9999
 CENTROID'S COORDINATES R0:   -0.39739E+01   -0.43175E+00   -0.49104E+01
 EXPECTATION VALUE OF (R-R0)**2:  0.45482E-01
 SECOND ORDER TENSOR IN CARTESIAN AXES:
         X             Y             Z
 X  0.15077E-01 -0.47315E-06  0.31115E-06
 Y -0.47315E-06  0.15207E-01 -0.73532E-04
 Z  0.31115E-06 -0.73532E-04  0.15198E-01
 TENSOR EIGENVALUES:
 A  0.15077E-01  B  0.15276E-01  C  0.15129E-01
 PRINCIPAL AXES:
         X             Y             Z
 A  0.99999E+00  0.33362E-02 -0.54670E-03
 B -0.28069E-02  0.72920E+00 -0.68429E+00
 C -0.18843E-02  0.68429E+00  0.72921E+00
 NON BONDING WANNIER FUNCTION
 DISTANCE CENTROID-ATOM   11(  0  0  0) :   0.34786E-04
 ATOMIC POPULATION DATA:
 11 F (  0  0  0)  1.0000
 A.O. POPULATIONS OF ATOM   11(  0  0  0):
   0.3815   0.6289   0.0029  -0.0118  -0.0015   0.0000   0.0000   0.0000
   0.0000   0.0000   0.0000   0.0000   0.0000   0.0000   0.0000   0.0000
   0.0000   0.0000   0.0000
~~~~~~~~~~~~~~~~~~~~~~~~~~~~~~~~~~~~~~~~~~~~~~~~~~~~~~~~~~~~~~~~~~~~~~~~~~~~~~~~
 WANNIER NUMBER   12 ATOMIC EXTENT  1.1339
 CENTROID'S COORDINATES R0:   -0.39774E+01   -0.12682E+00    0.46497E+00
 EXPECTATION VALUE OF (R-R0)**2:  0.16831E+01
 SECOND ORDER TENSOR IN CARTESIAN AXES:
         X             Y             Z
 X  0.44453E+00  0.29618E-02  0.10547E-02
 Y  0.29618E-02  0.74967E+00  0.11666E+00
 Z  0.10547E-02  0.11666E+00  0.48890E+00
 TENSOR EIGENVALUES:
 A  0.44453E+00  B  0.79427E+00  C  0.44430E+00
 PRINCIPAL AXES:
         X             Y             Z
 A  0.93826E+00  0.11555E+00 -0.32606E+00
 B  0.89867E-02  0.93410E+00  0.35689E+00
 C  0.34582E+00 -0.33779E+00  0.87539E+00
 BONDING WANNIER FUNCTION BETWEEN ATOMS:
 A:  12 F (  0  0  0) X -0.397391E+01 Y  0.431780E+00 Z  0.631189E+00 (AU)
 B:   3 ZN(  0  0  0) X -0.397391E+01 Y -0.251798E+01 Z -0.169484E+01 (AU)
 DISTANCE OF THE CENTROID FROM THE ATOMS A,B AND FROM THE A-B BOND:
  0.58281E+00  0.32222E+01  0.21539E+00
 POLARISATION FRACTION (0: COVALENT; 1: VERY IONIC)  0.71167E+00
 ATOMIC POPULATION DATA:
  3 ZN(  0  0  0)  0.0555  12 F (  0  0  0)  0.9374
 A.O. POPULATIONS OF ATOM    3(  0  0  0):
  -0.0000  -0.0000   0.0007  -0.0014   0.0040   0.0201   0.0000   0.0131
   0.0160  -0.0000  -0.0000  -0.0000   0.0000   0.0004   0.0003   0.0000
   0.0001  -0.0000   0.0000   0.0000   0.0002   0.0000   0.0000  -0.0000
   0.0000  -0.0002  -0.0000   0.0000   0.0001   0.0000   0.0018   0.0004
   0.0000
 A.O. POPULATIONS OF ATOM   12(  0  0  0):
   0.0015  -0.0077   0.0665   0.1177   0.0711   0.0000   0.2071   0.0136
   0.0000   0.2027   0.0134   0.0000   0.2346   0.0168  -0.0000   0.0000
   0.0000   0.0000  -0.0000
~~~~~~~~~~~~~~~~~~~~~~~~~~~~~~~~~~~~~~~~~~~~~~~~~~~~~~~~~~~~~~~~~~~~~~~~~~~~~~~~
 WANNIER NUMBER   13 ATOMIC EXTENT  1.0000
 CENTROID'S COORDINATES R0:   -0.39739E+01   -0.49227E+01    0.11947E+01
 EXPECTATION VALUE OF (R-R0)**2:  0.45407E-01
 SECOND ORDER TENSOR IN CARTESIAN AXES:
         X             Y             Z
 X  0.15128E-01  0.15165E-05  0.21340E-05
 Y  0.15165E-05  0.15116E-01 -0.16843E-04
 Z  0.21340E-05 -0.16843E-04  0.15162E-01
 TENSOR EIGENVALUES:
 A  0.15129E-01  B  0.15110E-01  C  0.15168E-01
 PRINCIPAL AXES:
         X             Y             Z
 A  0.99245E+00  0.12261E+00 -0.15086E-02
 B -0.11604E+00  0.94310E+00  0.31160E+00
 C  0.39627E-01 -0.30908E+00  0.95021E+00
 NON BONDING WANNIER FUNCTION
 DISTANCE CENTROID-ATOM    7(  0  0  0) :   0.93146E-04
 ATOMIC POPULATION DATA:
  7 F (  0  0  0)  1.0000
 A.O. POPULATIONS OF ATOM    7(  0  0  0):
   0.3815   0.6290   0.0028  -0.0117  -0.0016   0.0000   0.0000   0.0000
   0.0000   0.0000   0.0000   0.0000   0.0000   0.0000   0.0000   0.0000
   0.0000  -0.0000   0.0000
~~~~~~~~~~~~~~~~~~~~~~~~~~~~~~~~~~~~~~~~~~~~~~~~~~~~~~~~~~~~~~~~~~~~~~~~~~~~~~~~
 WANNIER NUMBER   14 ATOMIC EXTENT  1.0000
 CENTROID'S COORDINATES R0:   -0.39739E+01    0.49227E+01   -0.43469E+01
 EXPECTATION VALUE OF (R-R0)**2:  0.45403E-01
 SECOND ORDER TENSOR IN CARTESIAN AXES:
         X             Y             Z
 X  0.15129E-01 -0.11385E-05  0.25081E-05
 Y -0.11385E-05  0.15115E-01  0.14771E-04
 Z  0.25081E-05  0.14771E-04  0.15159E-01
 TENSOR EIGENVALUES:
 A  0.15129E-01  B  0.15111E-01  C  0.15163E-01
 PRINCIPAL AXES:
         X             Y             Z
 A  0.99320E+00 -0.11315E+00 -0.27505E-01
 B  0.99979E-01  0.94972E+00 -0.29672E+00
 C  0.59696E-01  0.29195E+00  0.95457E+00
 NON BONDING WANNIER FUNCTION
 DISTANCE CENTROID-ATOM    8(  0  0  0) :   0.94074E-04
 ATOMIC POPULATION DATA:
  8 F (  0  0  0)  1.0000
 A.O. POPULATIONS OF ATOM    8(  0  0  0):
   0.3815   0.6290   0.0028  -0.0117  -0.0016   0.0000   0.0000   0.0000
   0.0000   0.0000   0.0000   0.0000   0.0000   0.0000   0.0000   0.0000
   0.0000  -0.0000   0.0000
~~~~~~~~~~~~~~~~~~~~~~~~~~~~~~~~~~~~~~~~~~~~~~~~~~~~~~~~~~~~~~~~~~~~~~~~~~~~~~~~
 WANNIER NUMBER   15 ATOMIC EXTENT  1.0000
 CENTROID'S COORDINATES R0:   -0.39739E+01   -0.53669E+01   -0.41921E+01
 EXPECTATION VALUE OF (R-R0)**2:  0.45395E-01
 SECOND ORDER TENSOR IN CARTESIAN AXES:
         X             Y             Z
 X  0.15114E-01  0.40403E-06  0.22605E-06
 Y  0.40403E-06  0.15142E-01  0.15995E-05
 Z  0.22605E-06  0.15995E-05  0.15139E-01
 TENSOR EIGENVALUES:
 A  0.15114E-01  B  0.15143E-01  C  0.15138E-01
 PRINCIPAL AXES:
         X             Y             Z
 A  0.99987E+00 -0.13759E-01 -0.82710E-02
 B  0.15774E-01  0.93780E+00  0.34681E+00
 C  0.29849E-02 -0.34690E+00  0.93790E+00
 NON BONDING WANNIER FUNCTION
 DISTANCE CENTROID-ATOM    5(  0  0  0) :   0.92982E-04
 ATOMIC POPULATION DATA:
  5 F (  0  0  0)  1.0000
 A.O. POPULATIONS OF ATOM    5(  0  0  0):
   0.3815   0.6290   0.0028  -0.0117  -0.0016   0.0000   0.0000   0.0000
   0.0000   0.0000   0.0000   0.0000   0.0000   0.0000   0.0000   0.0000
  -0.0000   0.0000  -0.0000
~~~~~~~~~~~~~~~~~~~~~~~~~~~~~~~~~~~~~~~~~~~~~~~~~~~~~~~~~~~~~~~~~~~~~~~~~~~~~~~~
 WANNIER NUMBER   16 ATOMIC EXTENT  1.0000
 CENTROID'S COORDINATES R0:   -0.39739E+01    0.53669E+01    0.13495E+01
 EXPECTATION VALUE OF (R-R0)**2:  0.45397E-01
 SECOND ORDER TENSOR IN CARTESIAN AXES:
         X             Y             Z
 X  0.15116E-01 -0.15578E-05 -0.12473E-05
 Y -0.15578E-05  0.15142E-01 -0.51078E-06
 Z -0.12473E-05 -0.51078E-06  0.15138E-01
 TENSOR EIGENVALUES:
 A  0.15116E-01  B  0.15142E-01  C  0.15138E-01
 PRINCIPAL AXES:
         X             Y             Z
 A  0.99643E+00  0.61275E-01  0.58038E-01
 B -0.54724E-01  0.99260E+00 -0.10843E+00
 C -0.64252E-01  0.10487E+00  0.99241E+00
 NON BONDING WANNIER FUNCTION
 DISTANCE CENTROID-ATOM    6(  0  0  0) :   0.93114E-04
 ATOMIC POPULATION DATA:
  6 F (  0  0  0)  1.0000
 A.O. POPULATIONS OF ATOM    6(  0  0  0):
   0.3815   0.6290   0.0028  -0.0117  -0.0016   0.0000   0.0000   0.0000
   0.0000   0.0000   0.0000   0.0000   0.0000   0.0000   0.0000   0.0000
  -0.0000   0.0000   0.0000
~~~~~~~~~~~~~~~~~~~~~~~~~~~~~~~~~~~~~~~~~~~~~~~~~~~~~~~~~~~~~~~~~~~~~~~~~~~~~~~~
 WANNIER NUMBER   17 ATOMIC EXTENT  1.0000
 CENTROID'S COORDINATES R0:   -0.23596E-05    0.21961E+01    0.37619E+01
 EXPECTATION VALUE OF (R-R0)**2:  0.45428E-01
 SECOND ORDER TENSOR IN CARTESIAN AXES:
         X             Y             Z
 X  0.15258E-01  0.12162E-05  0.29786E-05
 Y  0.12162E-05  0.15072E-01  0.18426E-05
 Z  0.29786E-05  0.18426E-05  0.15099E-01
 TENSOR EIGENVALUES:
 A  0.15258E-01  B  0.15072E-01  C  0.15099E-01
 PRINCIPAL AXES:
         X             Y             Z
 A  0.99980E+00  0.67164E-02  0.18773E-01
 B -0.54419E-02  0.99773E+00 -0.67133E-01
 C -0.19182E-01  0.67018E-01  0.99757E+00
 NON BONDING WANNIER FUNCTION
 DISTANCE CENTROID-ATOM    9(  0  0  0) :   0.38422E-04
 ATOMIC POPULATION DATA:
  9 F (  0  0  0)  1.0000
 A.O. POPULATIONS OF ATOM    9(  0  0  0):
   0.3815   0.6290   0.0028  -0.0117  -0.0016   0.0000   0.0000   0.0000
   0.0000   0.0000   0.0000   0.0000   0.0000   0.0000   0.0000  -0.0000
   0.0000   0.0000   0.0000
~~~~~~~~~~~~~~~~~~~~~~~~~~~~~~~~~~~~~~~~~~~~~~~~~~~~~~~~~~~~~~~~~~~~~~~~~~~~~~~~
 WANNIER NUMBER   18 ATOMIC EXTENT  1.0000
 CENTROID'S COORDINATES R0:   -0.33000E-06   -0.21961E+01   -0.17797E+01
 EXPECTATION VALUE OF (R-R0)**2:  0.45431E-01
 SECOND ORDER TENSOR IN CARTESIAN AXES:
         X             Y             Z
 X  0.15258E-01 -0.15082E-06  0.76725E-06
 Y -0.15082E-06  0.15072E-01 -0.93097E-06
 Z  0.76725E-06 -0.93097E-06  0.15100E-01
 TENSOR EIGENVALUES:
 A  0.15258E-01  B  0.15072E-01  C  0.15100E-01
 PRINCIPAL AXES:
         X             Y             Z
 A  0.99999E+00 -0.83433E-03  0.48280E-02
 B  0.67337E-03  0.99945E+00  0.33246E-01
 C -0.48531E-02 -0.33242E-01  0.99944E+00
 NON BONDING WANNIER FUNCTION
 DISTANCE CENTROID-ATOM   10(  0  0  0) :   0.38566E-04
 ATOMIC POPULATION DATA:
 10 F (  0  0  0)  1.0000
 A.O. POPULATIONS OF ATOM   10(  0  0  0):
   0.3815   0.6290   0.0028  -0.0117  -0.0016   0.0000   0.0000   0.0000
   0.0000   0.0000   0.0000   0.0000   0.0000   0.0000   0.0000   0.0000
   0.0000   0.0000  -0.0000
~~~~~~~~~~~~~~~~~~~~~~~~~~~~~~~~~~~~~~~~~~~~~~~~~~~~~~~~~~~~~~~~~~~~~~~~~~~~~~~~
 WANNIER NUMBER   19 ATOMIC EXTENT  1.0000
 CENTROID'S COORDINATES R0:   -0.40609E+01    0.25641E+01    0.38197E+01
 EXPECTATION VALUE OF (R-R0)**2:  0.41843E-01
 SECOND ORDER TENSOR IN CARTESIAN AXES:
         X             Y             Z
 X  0.15647E-01 -0.16773E-02  0.99153E-03
 Y -0.16773E-02  0.13401E-01 -0.54758E-03
 Z  0.99153E-03 -0.54758E-03  0.12795E-01
 TENSOR EIGENVALUES:
 A  0.16858E-01  B  0.12513E-01  C  0.12472E-01
 PRINCIPAL AXES:
         X             Y             Z
 A  0.84931E+00 -0.45453E+00  0.26846E+00
 B  0.52758E+00  0.74837E+00 -0.40200E+00
 C -0.18192E-01  0.48305E+00  0.87540E+00
 NON BONDING WANNIER FUNCTION
 DISTANCE CENTROID-ATOM    4(  0  0  0) :   0.10212E+00
 ATOMIC POPULATION DATA:
  4 ZN(  0  0  0)  1.0000
 A.O. POPULATIONS OF ATOM    4(  0  0  0):
  -0.0063   0.2656  -0.0035  -0.0063   0.0003  -0.0001  -0.0000  -0.0000
  -0.0000   0.5593   0.1573   0.0542  -0.0150  -0.0043  -0.0015   0.0001
   0.0000   0.0000   0.0000   0.0000   0.0000   0.0000   0.0000   0.0000
   0.0000   0.0000   0.0000   0.0000   0.0000   0.0000   0.0000   0.0000
   0.0000
~~~~~~~~~~~~~~~~~~~~~~~~~~~~~~~~~~~~~~~~~~~~~~~~~~~~~~~~~~~~~~~~~~~~~~~~~~~~~~~~
 WANNIER NUMBER   20 ATOMIC EXTENT  1.0000
 CENTROID'S COORDINATES R0:   -0.39868E+01   -0.24167E+01   -0.16972E+01
 EXPECTATION VALUE OF (R-R0)**2:  0.41872E-01
 SECOND ORDER TENSOR IN CARTESIAN AXES:
         X             Y             Z
 X  0.12535E-01 -0.54775E-03  0.47543E-05
 Y -0.54775E-03  0.16834E-01 -0.58181E-04
 Z  0.47543E-05 -0.58181E-04  0.12503E-01
 TENSOR EIGENVALUES:
 A  0.12466E-01  B  0.16904E-01  C  0.12502E-01
 PRINCIPAL AXES:
         X             Y             Z
 A  0.98969E+00  0.12503E+00  0.69832E-01
 B -0.12440E+00  0.99214E+00 -0.13250E-01
 C -0.70940E-01  0.44261E-02  0.99747E+00
 NON BONDING WANNIER FUNCTION
 DISTANCE CENTROID-ATOM    3(  0  0  0) :   0.10210E+00
 ATOMIC POPULATION DATA:
  3 ZN(  0  0  0)  1.0000
 A.O. POPULATIONS OF ATOM    3(  0  0  0):
  -0.0063   0.2656  -0.0035  -0.0062   0.0003  -0.0001  -0.0000  -0.0000
   0.0000   0.0122   0.7583   0.0004  -0.0003  -0.0205  -0.0000   0.0000
   0.0001  -0.0000   0.0000   0.0000   0.0000   0.0000   0.0000   0.0000
   0.0000   0.0000   0.0000   0.0000   0.0000   0.0000   0.0000   0.0000
   0.0000
~~~~~~~~~~~~~~~~~~~~~~~~~~~~~~~~~~~~~~~~~~~~~~~~~~~~~~~~~~~~~~~~~~~~~~~~~~~~~~~~
 WANNIER NUMBER   21 ATOMIC EXTENT  1.0000
 CENTROID'S COORDINATES R0:   -0.40632E+01   -0.25632E+01   -0.16744E+01
 EXPECTATION VALUE OF (R-R0)**2:  0.41803E-01
 SECOND ORDER TENSOR IN CARTESIAN AXES:
         X             Y             Z
 X  0.15805E-01  0.16917E-02 -0.75893E-03
 Y  0.16917E-02  0.13344E-01 -0.39753E-03
 Z -0.75893E-03 -0.39753E-03  0.12653E-01
 TENSOR EIGENVALUES:
 A  0.16842E-01  B  0.12490E-01  C  0.12470E-01
 PRINCIPAL AXES:
         X             Y             Z
 A  0.87287E+00  0.44491E+00 -0.20037E+00
 B -0.46767E+00  0.64569E+00 -0.60363E+00
 C -0.13918E+00  0.62060E+00  0.77168E+00
 NON BONDING WANNIER FUNCTION
 DISTANCE CENTROID-ATOM    3(  0  0  0) :   0.10214E+00
 ATOMIC POPULATION DATA:
  3 ZN(  0  0  0)  1.0000
 A.O. POPULATIONS OF ATOM    3(  0  0  0):
  -0.0063   0.2658  -0.0035  -0.0063   0.0004  -0.0001  -0.0000  -0.0000
  -0.0000   0.5888   0.1509   0.0309  -0.0158  -0.0041  -0.0008   0.0001
   0.0000   0.0000   0.0000   0.0000   0.0000   0.0000   0.0000   0.0000
   0.0000   0.0000   0.0000   0.0000   0.0000   0.0000   0.0000   0.0000
   0.0000
~~~~~~~~~~~~~~~~~~~~~~~~~~~~~~~~~~~~~~~~~~~~~~~~~~~~~~~~~~~~~~~~~~~~~~~~~~~~~~~~
 WANNIER NUMBER   22 ATOMIC EXTENT  0.9976
 CENTROID'S COORDINATES R0:   -0.42786E+01    0.28255E+01    0.40781E+01
 EXPECTATION VALUE OF (R-R0)**2:  0.58987E+00
 SECOND ORDER TENSOR IN CARTESIAN AXES:
         X             Y             Z
 X  0.19960E+00 -0.57772E-01 -0.33400E-01
 Y -0.57772E-01  0.19895E+00  0.35299E-01
 Z -0.33400E-01  0.35299E-01  0.19132E+00
 TENSOR EIGENVALUES:
 A  0.28283E+00  B  0.14143E+00  C  0.16561E+00
 PRINCIPAL AXES:
         X             Y             Z
 A  0.62284E+00 -0.62627E+00 -0.46888E+00
 B  0.68915E+00  0.72288E+00 -0.50095E-01
 C  0.37032E+00 -0.29193E+00  0.88184E+00
 NON BONDING WANNIER FUNCTION
 DISTANCE CENTROID-ATOM    4(  0  0  0) :   0.49086E+00
 ATOMIC POPULATION DATA:
  4 ZN(  0  0  0)  1.0012
 A.O. POPULATIONS OF ATOM    4(  0  0  0):
  -0.0001  -0.0043   0.0700   0.0496   0.0014   0.0005   0.0006   0.0002
  -0.0000  -0.0042  -0.0040  -0.0024   0.1143   0.1094   0.0645   0.0286
   0.0273   0.0158   0.0189   0.0774   0.0943   0.0000   0.1011   0.0114
   0.0465   0.0558   0.0000   0.0608   0.0046   0.0185   0.0205  -0.0000
   0.0241
~~~~~~~~~~~~~~~~~~~~~~~~~~~~~~~~~~~~~~~~~~~~~~~~~~~~~~~~~~~~~~~~~~~~~~~~~~~~~~~~
 WANNIER NUMBER   23 ATOMIC EXTENT  0.9988
 CENTROID'S COORDINATES R0:   -0.37677E+01    0.20810E+01    0.39260E+01
 EXPECTATION VALUE OF (R-R0)**2:  0.59502E+00
 SECOND ORDER TENSOR IN CARTESIAN AXES:
         X             Y             Z
 X  0.17966E+00 -0.48822E-01 -0.55020E-02
 Y -0.48822E-01  0.25493E+00 -0.27495E-01
 Z -0.55020E-02 -0.27495E-01  0.16044E+00
 TENSOR EIGENVALUES:
 A  0.13919E+00  B  0.28305E+00  C  0.17278E+00
 PRINCIPAL AXES:
         X             Y             Z
 A  0.59369E+00  0.41432E+00  0.68983E+00
 B -0.41196E+00  0.89290E+00 -0.18174E+00
 C -0.69125E+00 -0.17628E+00  0.70079E+00
 NON BONDING WANNIER FUNCTION
 DISTANCE CENTROID-ATOM    4(  0  0  0) :   0.48969E+00
 ATOMIC POPULATION DATA:
  4 ZN(  0  0  0)  1.0006
 A.O. POPULATIONS OF ATOM    4(  0  0  0):
  -0.0001  -0.0044   0.0710   0.0503   0.0012  -0.0003  -0.0001   0.0005
  -0.0001  -0.0020  -0.0081  -0.0003   0.0536   0.2239   0.0090   0.0134
   0.0560   0.0022   0.0590   0.0159   0.0103   0.0893   0.1171   0.0355
   0.0096   0.0060   0.0534   0.0704   0.0143   0.0038   0.0020   0.0204
   0.0279
~~~~~~~~~~~~~~~~~~~~~~~~~~~~~~~~~~~~~~~~~~~~~~~~~~~~~~~~~~~~~~~~~~~~~~~~~~~~~~~~
 WANNIER NUMBER   24 ATOMIC EXTENT  0.9993
 CENTROID'S COORDINATES R0:   -0.36517E+01   -0.25320E+01   -0.13255E+01
 EXPECTATION VALUE OF (R-R0)**2:  0.59707E+00
 SECOND ORDER TENSOR IN CARTESIAN AXES:
         X             Y             Z
 X  0.21292E+00 -0.10746E-01  0.65727E-01
 Y -0.10746E-01  0.15240E+00  0.67371E-02
 Z  0.65727E-01  0.67371E-02  0.23176E+00
 TENSOR EIGENVALUES:
 A  0.16681E+00  B  0.14149E+00  C  0.28876E+00
 PRINCIPAL AXES:
         X             Y             Z
 A  0.56387E+00 -0.65527E+00 -0.50267E+00
 B  0.50173E+00  0.75526E+00 -0.42172E+00
 C  0.65599E+00 -0.14409E-01  0.75463E+00
 NON BONDING WANNIER FUNCTION
 DISTANCE CENTROID-ATOM    3(  0  0  0) :   0.49034E+00
 ATOMIC POPULATION DATA:
  3 ZN(  0  0  0)  1.0004
 A.O. POPULATIONS OF ATOM    3(  0  0  0):
  -0.0001  -0.0043   0.0700   0.0494   0.0016   0.0003   0.0003  -0.0000
   0.0006  -0.0045  -0.0000  -0.0056   0.1264   0.0001   0.1588   0.0317
   0.0000   0.0398   0.0342   0.2119   0.0051   0.0388   0.0015   0.0206
   0.1273   0.0030   0.0232   0.0009   0.0082   0.0509   0.0010   0.0089
   0.0004
~~~~~~~~~~~~~~~~~~~~~~~~~~~~~~~~~~~~~~~~~~~~~~~~~~~~~~~~~~~~~~~~~~~~~~~~~~~~~~~~
 WANNIER NUMBER   25 ATOMIC EXTENT  0.9984
 CENTROID'S COORDINATES R0:   -0.37151E+01   -0.21589E+01   -0.19079E+01
 EXPECTATION VALUE OF (R-R0)**2:  0.58955E+00
 SECOND ORDER TENSOR IN CARTESIAN AXES:
         X             Y             Z
 X  0.18787E+00  0.46600E-01 -0.37340E-01
 Y  0.46600E-01  0.22907E+00 -0.37561E-01
 Z -0.37340E-01 -0.37561E-01  0.17261E+00
 TENSOR EIGENVALUES:
 A  0.16362E+00  B  0.28380E+00  C  0.14213E+00
 PRINCIPAL AXES:
         X             Y             Z
 A  0.56421E+00 -0.67478E+00 -0.47575E+00
 B  0.52399E+00  0.73796E+00 -0.42526E+00
 C  0.63804E+00 -0.93480E-02  0.76994E+00
 NON BONDING WANNIER FUNCTION
 DISTANCE CENTROID-ATOM    3(  0  0  0) :   0.49118E+00
 ATOMIC POPULATION DATA:
  3 ZN(  0  0  0)  1.0008
 A.O. POPULATIONS OF ATOM    3(  0  0  0):
  -0.0000  -0.0043   0.0697   0.0494   0.0014   0.0005  -0.0001   0.0006
   0.0002  -0.0031  -0.0055  -0.0018   0.0838   0.1515   0.0497   0.0209
   0.0381   0.0125   0.0088   0.0238   0.1060   0.0094   0.1457   0.0054
   0.0143   0.0627   0.0057   0.0876   0.0023   0.0057   0.0229   0.0023
   0.0346
~~~~~~~~~~~~~~~~~~~~~~~~~~~~~~~~~~~~~~~~~~~~~~~~~~~~~~~~~~~~~~~~~~~~~~~~~~~~~~~~
 WANNIER NUMBER   26 ATOMIC EXTENT  0.9966
 CENTROID'S COORDINATES R0:   -0.40983E+01    0.23484E+01    0.42549E+01
 EXPECTATION VALUE OF (R-R0)**2:  0.64894E+00
 SECOND ORDER TENSOR IN CARTESIAN AXES:
         X             Y             Z
 X  0.15749E+00  0.18779E-01 -0.39565E-01
 Y  0.18779E-01  0.20539E+00 -0.41678E-01
 Z -0.39565E-01 -0.41678E-01  0.28606E+00
 TENSOR EIGENVALUES:
 A  0.14532E+00  B  0.18780E+00  C  0.31582E+00
 PRINCIPAL AXES:
         X             Y             Z
 A  0.96305E+00 -0.14252E+00  0.22852E+00
 B  0.39500E-01  0.91408E+00  0.40360E+00
 C -0.26640E+00 -0.37966E+00  0.88594E+00
 NON BONDING WANNIER FUNCTION
 DISTANCE CENTROID-ATOM    4(  0  0  0) :   0.45913E+00
 ATOMIC POPULATION DATA:
  4 ZN(  0  0  0)  1.0017
 A.O. POPULATIONS OF ATOM    4(  0  0  0):
  -0.0000  -0.0037   0.0603   0.0424   0.0012  -0.0011   0.0000   0.0001
   0.0008  -0.0007  -0.0012  -0.0072   0.0181   0.0341   0.1943   0.0045
   0.0085   0.0485   0.1443   0.0493   0.1286   0.0017   0.0055   0.0867
   0.0296   0.0763   0.0011   0.0033   0.0342   0.0118   0.0286   0.0006
   0.0013
~~~~~~~~~~~~~~~~~~~~~~~~~~~~~~~~~~~~~~~~~~~~~~~~~~~~~~~~~~~~~~~~~~~~~~~~~~~~~~~~
 WANNIER NUMBER   27 ATOMIC EXTENT  0.9917
 CENTROID'S COORDINATES R0:   -0.97048E-02    0.48599E+01   -0.14513E+01
 EXPECTATION VALUE OF (R-R0)**2:  0.31558E+01
 SECOND ORDER TENSOR IN CARTESIAN AXES:
         X             Y             Z
 X  0.89447E+00 -0.48782E-02 -0.11007E-02
 Y -0.48782E-02  0.13673E+01  0.13447E-01
 Z -0.11007E-02  0.13447E-01  0.89410E+00
 TENSOR EIGENVALUES:
 A  0.89509E+00  B  0.13677E+01  C  0.89304E+00
 PRINCIPAL AXES:
         X             Y             Z
 A  0.81960E+00  0.24768E-01 -0.57241E+00
 B -0.10369E-01  0.99954E+00  0.28403E-01
 C  0.57285E+00 -0.17343E-01  0.81948E+00
 NON BONDING WANNIER FUNCTION
 DISTANCE CENTROID-ATOM    1(  0  0  0) :   0.87203E+00
 ATOMIC POPULATION DATA:
  1 BA(  0  0  0)  1.0042
 A.O. POPULATIONS OF ATOM    1(  0  0  0):
   0.0365   0.2422  -0.0132   0.0000   0.1154   0.0001   0.0001   0.6228
   0.0003   0.0000   0.0000   0.0000   0.0000   0.0000   0.0000   0.0000
  -0.0000   0.0000   0.0000
~~~~~~~~~~~~~~~~~~~~~~~~~~~~~~~~~~~~~~~~~~~~~~~~~~~~~~~~~~~~~~~~~~~~~~~~~~~~~~~~
 WANNIER NUMBER   28 ATOMIC EXTENT  0.9871
 CENTROID'S COORDINATES R0:   -0.72288E+00   -0.36610E+01    0.44632E+01
 EXPECTATION VALUE OF (R-R0)**2:  0.31534E+01
 SECOND ORDER TENSOR IN CARTESIAN AXES:
         X             Y             Z
 X  0.12182E+01 -0.13963E+00 -0.17693E+00
 Y -0.13963E+00  0.94811E+00  0.72834E-01
 Z -0.17693E+00  0.72834E-01  0.98705E+00
 TENSOR EIGENVALUES:
 A  0.13724E+01  B  0.88808E+00  C  0.89288E+00
 PRINCIPAL AXES:
         X             Y             Z
 A  0.82533E+00 -0.34795E+00 -0.44470E+00
 B  0.52341E+00  0.76691E+00  0.37134E+00
 C  0.21184E+00 -0.53924E+00  0.81507E+00
 NON BONDING WANNIER FUNCTION
 DISTANCE CENTROID-ATOM    2(  0  0  0) :   0.88526E+00
 ATOMIC POPULATION DATA:
  2 BA(  0  0  0)  1.0065
 A.O. POPULATIONS OF ATOM    2(  0  0  0):
   0.0329   0.2134  -0.0023   0.0820   0.0152   0.0240   0.4345   0.0779
   0.1287   0.0000   0.0000   0.0000   0.0000   0.0000   0.0000   0.0000
   0.0000   0.0000   0.0001
~~~~~~~~~~~~~~~~~~~~~~~~~~~~~~~~~~~~~~~~~~~~~~~~~~~~~~~~~~~~~~~~~~~~~~~~~~~~~~~~
 WANNIER NUMBER   29 ATOMIC EXTENT  1.0332
 CENTROID'S COORDINATES R0:   -0.44292E+01    0.52864E+01    0.10388E+01
 EXPECTATION VALUE OF (R-R0)**2:  0.16722E+01
 SECOND ORDER TENSOR IN CARTESIAN AXES:
         X             Y             Z
 X  0.68420E+00  0.49759E-01  0.19376E+00
 Y  0.49759E-01  0.43245E+00  0.44224E-01
 Z  0.19376E+00  0.44224E-01  0.55553E+00
 TENSOR EIGENVALUES:
 A  0.83493E+00  B  0.42589E+00  C  0.41136E+00
 PRINCIPAL AXES:
         X             Y             Z
 A  0.79860E+00  0.16241E+00  0.57953E+00
 B -0.43126E+00  0.82608E+00  0.36277E+00
 C -0.41982E+00 -0.53964E+00  0.72975E+00
 NON BONDING WANNIER FUNCTION
 DISTANCE CENTROID-ATOM    6(  0  0  0) :   0.55704E+00
 ATOMIC POPULATION DATA:
  6 F (  0  0  0)  0.9837   1 BA( -1  1  0)  0.0116
 A.O. POPULATIONS OF ATOM    6(  0  0  0):
   0.0013  -0.0080   0.0701   0.1075   0.0872   0.1608   0.0038   0.0763
   0.1532   0.0031   0.0721   0.1719   0.0035   0.0809   0.0000   0.0000
   0.0000  -0.0000   0.0000
 A.O. POPULATIONS OF ATOM    1( -1  1  0):
  -0.0000  -0.0014   0.0055  -0.0008  -0.0000  -0.0004  -0.0004  -0.0001
  -0.0002   0.0000   0.0004   0.0001   0.0001   0.0001   0.0000   0.0047
   0.0007   0.0017   0.0015
~~~~~~~~~~~~~~~~~~~~~~~~~~~~~~~~~~~~~~~~~~~~~~~~~~~~~~~~~~~~~~~~~~~~~~~~~~~~~~~~
 WANNIER NUMBER   30 ATOMIC EXTENT  1.0318
 CENTROID'S COORDINATES R0:   -0.44069E+01   -0.67642E+00   -0.51100E+01
 EXPECTATION VALUE OF (R-R0)**2:  0.15804E+01
 SECOND ORDER TENSOR IN CARTESIAN AXES:
         X             Y             Z
 X  0.61769E+00  0.14108E+00  0.10720E+00
 Y  0.14108E+00  0.50272E+00  0.54556E-01
 Z  0.10720E+00  0.54556E-01  0.45997E+00
 TENSOR EIGENVALUES:
 A  0.76014E+00  B  0.39641E+00  C  0.42383E+00
 PRINCIPAL AXES:
         X             Y             Z
 A  0.77932E+00  0.50557E+00  0.37022E+00
 B -0.61568E+00  0.50782E+00  0.60254E+00
 C  0.11663E+00 -0.69751E+00  0.70702E+00
 NON BONDING WANNIER FUNCTION
 DISTANCE CENTROID-ATOM   11(  0  0  0) :   0.53585E+00
 ATOMIC POPULATION DATA:
 11 F (  0  0  0)  0.9844
 A.O. POPULATIONS OF ATOM   11(  0  0  0):
   0.0011  -0.0076   0.0650   0.1050   0.0765   0.1583   0.0509   0.0337
   0.1554   0.0487   0.0327   0.1740   0.0543   0.0366   0.0000   0.0000
   0.0000   0.0000  -0.0000
~~~~~~~~~~~~~~~~~~~~~~~~~~~~~~~~~~~~~~~~~~~~~~~~~~~~~~~~~~~~~~~~~~~~~~~~~~~~~~~~
 WANNIER NUMBER   31 ATOMIC EXTENT  1.0297
 CENTROID'S COORDINATES R0:   -0.39749E+01    0.54189E+01   -0.45557E+01
 EXPECTATION VALUE OF (R-R0)**2:  0.16246E+01
 SECOND ORDER TENSOR IN CARTESIAN AXES:
         X             Y             Z
 X  0.42696E+00  0.45924E-03 -0.69325E-05
 Y  0.45924E-03  0.72694E+00 -0.13051E+00
 Z -0.69325E-05 -0.13051E+00  0.47066E+00
 TENSOR EIGENVALUES:
 A  0.42697E+00  B  0.78171E+00  C  0.41589E+00
 PRINCIPAL AXES:
         X             Y             Z
 A  0.99988E+00  0.48781E-02  0.14730E-01
 B  0.12013E-02  0.92211E+00 -0.38692E+00
 C -0.15470E-01  0.38689E+00  0.92200E+00
 NON BONDING WANNIER FUNCTION
 DISTANCE CENTROID-ATOM    8(  0  0  0) :   0.53830E+00
 ATOMIC POPULATION DATA:
  8 F (  0  0  0)  0.9854
 A.O. POPULATIONS OF ATOM    8(  0  0  0):
   0.0013  -0.0084   0.0721   0.1177   0.0809   0.0000   0.2070   0.0335
   0.0000   0.1958   0.0317   0.0000   0.2181   0.0356   0.0000   0.0000
  -0.0000   0.0000   0.0000
~~~~~~~~~~~~~~~~~~~~~~~~~~~~~~~~~~~~~~~~~~~~~~~~~~~~~~~~~~~~~~~~~~~~~~~~~~~~~~~~
 WANNIER NUMBER   32 ATOMIC EXTENT  1.1229
 CENTROID'S COORDINATES R0:   -0.39757E+01    0.49299E+00    0.12003E+01
 EXPECTATION VALUE OF (R-R0)**2:  0.16852E+01
 SECOND ORDER TENSOR IN CARTESIAN AXES:
         X             Y             Z
 X  0.44125E+00 -0.69455E-04 -0.17448E-02
 Y -0.69455E-04  0.45984E+00  0.68859E-01
 Z -0.17448E-02  0.68859E-01  0.78416E+00
 TENSOR EIGENVALUES:
 A  0.44123E+00  B  0.44584E+00  C  0.79818E+00
 PRINCIPAL AXES:
         X             Y             Z
 A  0.99814E+00 -0.58599E-01  0.16845E-01
 B  0.60781E-01  0.97816E+00 -0.19877E+00
 C -0.48289E-02  0.19943E+00  0.97990E+00
 BONDING WANNIER FUNCTION BETWEEN ATOMS:
 A:  12 F (  0  0  0) X -0.397391E+01 Y  0.431780E+00 Z  0.631189E+00 (AU)
 B:   4 ZN(  0  0  0) X -0.397391E+01 Y  0.251798E+01 Z  0.384676E+01 (AU)
 DISTANCE OF THE CENTROID FROM THE ATOMS A,B AND FROM THE A-B BOND:
  0.57244E+00  0.33323E+01  0.25843E+00
 POLARISATION FRACTION (0: COVALENT; 1: VERY IONIC)  0.73348E+00
 ATOMIC POPULATION DATA:
  4 ZN(  0  0  0)  0.0509  12 F (  0  0  0)  0.9423
 A.O. POPULATIONS OF ATOM    4(  0  0  0):
  -0.0000   0.0000   0.0005  -0.0010   0.0016   0.0208   0.0000   0.0114
   0.0150   0.0000  -0.0000  -0.0000   0.0000   0.0003   0.0003   0.0000
  -0.0000   0.0000   0.0000   0.0000   0.0003   0.0000   0.0000  -0.0000
   0.0000  -0.0002  -0.0000   0.0000   0.0003   0.0000   0.0013   0.0003
   0.0000
 A.O. POPULATIONS OF ATOM   12(  0  0  0):
   0.0015  -0.0078   0.0678   0.1175   0.0736   0.0000   0.0006   0.2210
   0.0000   0.0010   0.2159   0.0000   0.0016   0.2498   0.0000   0.0000
   0.0000   0.0000   0.0000
~~~~~~~~~~~~~~~~~~~~~~~~~~~~~~~~~~~~~~~~~~~~~~~~~~~~~~~~~~~~~~~~~~~~~~~~~~~~~~~~
 WANNIER NUMBER   33 ATOMIC EXTENT  1.0298
 CENTROID'S COORDINATES R0:   -0.39742E+01   -0.54190E+01    0.98561E+00
 EXPECTATION VALUE OF (R-R0)**2:  0.16239E+01
 SECOND ORDER TENSOR IN CARTESIAN AXES:
         X             Y             Z
 X  0.42710E+00 -0.86191E-03 -0.28823E-03
 Y -0.86191E-03  0.72631E+00  0.13085E+00
 Z -0.28823E-03  0.13085E+00  0.47050E+00
 TENSOR EIGENVALUES:
 A  0.42710E+00  B  0.78139E+00  C  0.41542E+00
 PRINCIPAL AXES:
         X             Y             Z
 A  0.99998E+00  0.74760E-04  0.64160E-02
 B -0.25579E-02  0.92169E+00  0.38793E+00
 C -0.58845E-02 -0.38793E+00  0.92167E+00
 NON BONDING WANNIER FUNCTION
 DISTANCE CENTROID-ATOM    7(  0  0  0) :   0.53850E+00
 ATOMIC POPULATION DATA:
  7 F (  0  0  0)  0.9854
 A.O. POPULATIONS OF ATOM    7(  0  0  0):
   0.0013  -0.0084   0.0721   0.1178   0.0810  -0.0000   0.2068   0.0337
   0.0000   0.1957   0.0318   0.0000   0.2180   0.0357   0.0000   0.0000
  -0.0000   0.0000  -0.0000
~~~~~~~~~~~~~~~~~~~~~~~~~~~~~~~~~~~~~~~~~~~~~~~~~~~~~~~~~~~~~~~~~~~~~~~~~~~~~~~~
 WANNIER NUMBER   34 ATOMIC EXTENT  1.0332
 CENTROID'S COORDINATES R0:   -0.44288E+01   -0.52880E+01   -0.45021E+01
 EXPECTATION VALUE OF (R-R0)**2:  0.16754E+01
 SECOND ORDER TENSOR IN CARTESIAN AXES:
         X             Y             Z
 X  0.68743E+00 -0.48977E-01  0.19391E+00
 Y -0.48977E-01  0.43205E+00 -0.43660E-01
 Z  0.19391E+00 -0.43660E-01  0.55595E+00
 TENSOR EIGENVALUES:
 A  0.83695E+00  B  0.42647E+00  C  0.41200E+00
 PRINCIPAL AXES:
         X             Y             Z
 A  0.80084E+00 -0.15913E+00  0.57735E+00
 B  0.44647E+00  0.80117E+00 -0.39848E+00
 C -0.39915E+00  0.57689E+00  0.71266E+00
 NON BONDING WANNIER FUNCTION
 DISTANCE CENTROID-ATOM    5(  0  0  0) :   0.55609E+00
 ATOMIC POPULATION DATA:
  5 F (  0  0  0)  0.9837   2 BA( -1  1 -1)  0.0116
 A.O. POPULATIONS OF ATOM    5(  0  0  0):
   0.0013  -0.0080   0.0699   0.1072   0.0869   0.1613   0.0036   0.0762
   0.1536   0.0030   0.0722   0.1723   0.0034   0.0810   0.0000   0.0000
   0.0000  -0.0000   0.0000
 A.O. POPULATIONS OF ATOM    2( -1  1 -1):
  -0.0000  -0.0014   0.0055  -0.0008  -0.0000  -0.0004  -0.0004  -0.0001
  -0.0002   0.0000   0.0004   0.0001   0.0001   0.0001   0.0000   0.0047
   0.0008   0.0017   0.0015
~~~~~~~~~~~~~~~~~~~~~~~~~~~~~~~~~~~~~~~~~~~~~~~~~~~~~~~~~~~~~~~~~~~~~~~~~~~~~~~~
 WANNIER NUMBER   35 ATOMIC EXTENT  1.1222
 CENTROID'S COORDINATES R0:    0.47757E+00    0.23800E+01    0.40046E+01
 EXPECTATION VALUE OF (R-R0)**2:  0.17382E+01
 SECOND ORDER TENSOR IN CARTESIAN AXES:
         X             Y             Z
 X  0.76097E+00  0.86614E-01  0.11727E+00
 Y  0.86614E-01  0.46363E+00  0.39151E-01
 Z  0.11727E+00  0.39151E-01  0.51360E+00
 TENSOR EIGENVALUES:
 A  0.83219E+00  B  0.43856E+00  C  0.46745E+00
 PRINCIPAL AXES:
         X             Y             Z
 A  0.89842E+00  0.24952E+00  0.36136E+00
 B -0.17512E+00  0.95820E+00 -0.22625E+00
 C -0.40271E+00  0.13999E+00  0.90456E+00
 BONDING WANNIER FUNCTION BETWEEN ATOMS:
 A:   9 F (  0  0  0) X -0.332204E-17 Y  0.219607E+01 Z  0.376186E+01 (AU)
 B:   4 ZN(  1 -1  0) X  0.397391E+01 Y  0.251798E+01 Z  0.384676E+01 (AU)
 DISTANCE OF THE CENTROID FROM THE ATOMS A,B AND FROM THE A-B BOND:
  0.56638E+00  0.35026E+01  0.27361E+00
 POLARISATION FRACTION (0: COVALENT; 1: VERY IONIC)  0.75129E+00
 ATOMIC POPULATION DATA:
  9 F (  0  0  0)  0.9428   4 ZN(  1 -1  0)  0.0470
 A.O. POPULATIONS OF ATOM    9(  0  0  0):
   0.0015  -0.0078   0.0680   0.1145   0.0764   0.1500   0.0252   0.0473
   0.1472   0.0245   0.0454   0.1729   0.0273   0.0505   0.0000   0.0000
   0.0000   0.0000   0.0000
 A.O. POPULATIONS OF ATOM    4(  1 -1  0):
  -0.0000   0.0000   0.0001  -0.0009   0.0009   0.0183   0.0265  -0.0000
   0.0004   0.0000  -0.0000   0.0000   0.0002  -0.0000   0.0000   0.0000
   0.0000  -0.0000   0.0002   0.0000   0.0000   0.0006   0.0000  -0.0000
   0.0000   0.0000  -0.0000   0.0000   0.0001   0.0000  -0.0000   0.0006
  -0.0000
~~~~~~~~~~~~~~~~~~~~~~~~~~~~~~~~~~~~~~~~~~~~~~~~~~~~~~~~~~~~~~~~~~~~~~~~~~~~~~~~
 WANNIER NUMBER   36 ATOMIC EXTENT  1.0436
 CENTROID'S COORDINATES R0:   -0.25496E-02   -0.23811E+01   -0.22946E+01
 EXPECTATION VALUE OF (R-R0)**2:  0.16487E+01
 SECOND ORDER TENSOR IN CARTESIAN AXES:
         X             Y             Z
 X  0.42914E+00  0.60546E-03  0.14328E-02
 Y  0.60546E-03  0.44138E+00  0.11582E+00
 Z  0.14328E-02  0.11582E+00  0.77820E+00
 TENSOR EIGENVALUES:
 A  0.42913E+00  B  0.40539E+00  C  0.81419E+00
 PRINCIPAL AXES:
         X             Y             Z
 A  0.99997E+00  0.49676E-02 -0.57527E-02
 B -0.64506E-02  0.95497E+00 -0.29665E+00
 C  0.40200E-02  0.29667E+00  0.95497E+00
 ATOMIC POPULATION DATA:
 10 F (  0  0  0)  0.9788
 A.O. POPULATIONS OF ATOM   10(  0  0  0):
   0.0011  -0.0075   0.0635   0.1040   0.0740   0.0000   0.0267   0.2199
   0.0000   0.0256   0.2092   0.0000   0.0287   0.2335   0.0000  -0.0000
   0.0000   0.0000   0.0000
~~~~~~~~~~~~~~~~~~~~~~~~~~~~~~~~~~~~~~~~~~~~~~~~~~~~~~~~~~~~~~~~~~~~~~~~~~~~~~~~
 WANNIER NUMBER   37 ATOMIC EXTENT  0.9906
 CENTROID'S COORDINATES R0:    0.24104E-01   -0.36687E+01    0.32381E+01
 EXPECTATION VALUE OF (R-R0)**2:  0.31594E+01
 SECOND ORDER TENSOR IN CARTESIAN AXES:
         X             Y             Z
 X  0.88653E+00  0.49062E-02 -0.10924E-01
 Y  0.49062E-02  0.94425E+00 -0.15341E+00
 Z -0.10924E-01 -0.15341E+00  0.13286E+01
 TENSOR EIGENVALUES:
 A  0.88601E+00  B  0.89076E+00  C  0.13826E+01
 PRINCIPAL AXES:
         X             Y             Z
 A  0.97522E+00 -0.21539E+00 -0.50585E-01
 B  0.21994E+00  0.91892E+00  0.32743E+00
 C -0.24043E-01 -0.33044E+00  0.94352E+00
 NON BONDING WANNIER FUNCTION
 DISTANCE CENTROID-ATOM    2(  0  0  0) :   0.89210E+00
 ATOMIC POPULATION DATA:
  2 BA(  0  0  0)  1.0047
 A.O. POPULATIONS OF ATOM    2(  0  0  0):
   0.0332   0.2145  -0.0015   0.0001   0.0143   0.1069   0.0005   0.0719
   0.5647   0.0000   0.0000   0.0000   0.0000   0.0000   0.0000   0.0000
   0.0002   0.0000   0.0000
~~~~~~~~~~~~~~~~~~~~~~~~~~~~~~~~~~~~~~~~~~~~~~~~~~~~~~~~~~~~~~~~~~~~~~~~~~~~~~~~
 WANNIER NUMBER   38 ATOMIC EXTENT  0.9883
 CENTROID'S COORDINATES R0:    0.70937E+00   -0.36718E+01    0.45025E+01
 EXPECTATION VALUE OF (R-R0)**2:  0.31578E+01
 SECOND ORDER TENSOR IN CARTESIAN AXES:
         X             Y             Z
 X  0.12065E+01  0.13209E+00  0.19477E+00
 Y  0.13209E+00  0.94246E+00  0.77131E-01
 Z  0.19477E+00  0.77131E-01  0.10088E+01
 TENSOR EIGENVALUES:
 A  0.13796E+01  B  0.88592E+00  C  0.89230E+00
 PRINCIPAL AXES:
         X             Y             Z
 A  0.80559E+00  0.33022E+00  0.49191E+00
 B -0.56349E+00  0.68353E+00  0.46396E+00
 C -0.18303E+00 -0.65095E+00  0.73673E+00
 NON BONDING WANNIER FUNCTION
 DISTANCE CENTROID-ATOM    2(  0  0  0) :   0.88868E+00
 ATOMIC POPULATION DATA:
  2 BA(  0  0  0)  1.0059
 A.O. POPULATIONS OF ATOM    2(  0  0  0):
   0.0329   0.2131  -0.0017   0.0778   0.0141   0.0285   0.4145   0.0722
   0.1543   0.0000   0.0000   0.0000   0.0000   0.0000   0.0000   0.0000
   0.0000   0.0000   0.0001
~~~~~~~~~~~~~~~~~~~~~~~~~~~~~~~~~~~~~~~~~~~~~~~~~~~~~~~~~~~~~~~~~~~~~~~~~~~~~~~~
 WANNIER NUMBER   39 ATOMIC EXTENT  0.9880
 CENTROID'S COORDINATES R0:   -0.74046E+00    0.36512E+01   -0.11225E+01
 EXPECTATION VALUE OF (R-R0)**2:  0.31631E+01
 SECOND ORDER TENSOR IN CARTESIAN AXES:
         X             Y             Z
 X  0.12397E+01  0.14717E+00 -0.16468E+00
 Y  0.14717E+00  0.95403E+00 -0.67095E-01
 Z -0.16468E+00 -0.67095E-01  0.96935E+00
 TENSOR EIGENVALUES:
 A  0.13791E+01  B  0.88981E+00  C  0.89416E+00
 PRINCIPAL AXES:
         X             Y             Z
 A  0.84563E+00  0.35560E+00 -0.39808E+00
 B -0.53367E+00  0.57776E+00 -0.61756E+00
 C  0.10387E-01  0.73467E+00  0.67834E+00
 NON BONDING WANNIER FUNCTION
 DISTANCE CENTROID-ATOM    1(  0  0  0) :   0.88502E+00
 ATOMIC POPULATION DATA:
  1 BA(  0  0  0)  1.0061
 A.O. POPULATIONS OF ATOM    1(  0  0  0):
   0.0331   0.2148  -0.0030   0.0854   0.0161   0.0187   0.4560   0.0829
   0.1018   0.0000   0.0000   0.0000   0.0000   0.0000   0.0000   0.0000
   0.0000   0.0000   0.0001
~~~~~~~~~~~~~~~~~~~~~~~~~~~~~~~~~~~~~~~~~~~~~~~~~~~~~~~~~~~~~~~~~~~~~~~~~~~~~~~~
 WANNIER NUMBER   40 ATOMIC EXTENT  0.9889
 CENTROID'S COORDINATES R0:    0.68878E+00    0.36663E+01   -0.10107E+01
 EXPECTATION VALUE OF (R-R0)**2:  0.31626E+01
 SECOND ORDER TENSOR IN CARTESIAN AXES:
         X             Y             Z
 X  0.11881E+01 -0.13059E+00  0.19945E+00
 Y -0.13059E+00  0.94430E+00 -0.85134E-01
 Z  0.19945E+00 -0.85134E-01  0.10302E+01
 TENSOR EIGENVALUES:
 A  0.13795E+01  B  0.88737E+00  C  0.89574E+00
 PRINCIPAL AXES:
         X             Y             Z
 A  0.77976E+00 -0.33721E+00  0.52751E+00
 B  0.46347E+00  0.87736E+00 -0.12424E+00
 C -0.42093E+00  0.34136E+00  0.84041E+00
 NON BONDING WANNIER FUNCTION
 DISTANCE CENTROID-ATOM    1(  0  0  0) :   0.88875E+00
 ATOMIC POPULATION DATA:
  1 BA(  0  0  0)  1.0056
 A.O. POPULATIONS OF ATOM    1(  0  0  0):
   0.0329   0.2129  -0.0016   0.0728   0.0146   0.0326   0.3899   0.0751
   0.1762   0.0000   0.0000   0.0000   0.0000   0.0000   0.0000   0.0000
   0.0000   0.0000   0.0001
~~~~~~~~~~~~~~~~~~~~~~~~~~~~~~~~~~~~~~~~~~~~~~~~~~~~~~~~~~~~~~~~~~~~~~~~~~~~~~~~
 WANNIER NUMBER   41 ATOMIC EXTENT  0.9912
 CENTROID'S COORDINATES R0:    0.69142E-01    0.36844E+01   -0.23085E+01
 EXPECTATION VALUE OF (R-R0)**2:  0.31637E+01
 SECOND ORDER TENSOR IN CARTESIAN AXES:
         X             Y             Z
 X  0.89356E+00 -0.13648E-01 -0.35690E-01
 Y -0.13648E-01  0.93901E+00  0.14284E+00
 Z -0.35690E-01  0.14284E+00  0.13311E+01
 TENSOR EIGENVALUES:
 A  0.88938E+00  B  0.89367E+00  C  0.13806E+01
 PRINCIPAL AXES:
         X             Y             Z
 A  0.84811E+00  0.52035E+00 -0.99742E-01
 B -0.52404E+00  0.79609E+00 -0.30271E+00
 C -0.78112E-01  0.30900E+00  0.94785E+00
 NON BONDING WANNIER FUNCTION
 DISTANCE CENTROID-ATOM    1(  0  0  0) :   0.89364E+00
 ATOMIC POPULATION DATA:
  1 BA(  0  0  0)  1.0044
 A.O. POPULATIONS OF ATOM    1(  0  0  0):
   0.0330   0.2130  -0.0005   0.0007   0.0129   0.1072   0.0038   0.0644
   0.5696   0.0000   0.0000   0.0000   0.0000   0.0000   0.0000   0.0000
   0.0002   0.0000   0.0000
~~~~~~~~~~~~~~~~~~~~~~~~~~~~~~~~~~~~~~~~~~~~~~~~~~~~~~~~~~~~~~~~~~~~~~~~~~~~~~~~
 WANNIER NUMBER   42 ATOMIC EXTENT  0.9913
 CENTROID'S COORDINATES R0:   -0.69111E-02   -0.48599E+01    0.40758E+01
 EXPECTATION VALUE OF (R-R0)**2:  0.31528E+01
 SECOND ORDER TENSOR IN CARTESIAN AXES:
         X             Y             Z
 X  0.89230E+00  0.38612E-02  0.59918E-03
 Y  0.38612E-02  0.13678E+01 -0.55838E-02
 Z  0.59918E-03 -0.55838E-02  0.89262E+00
 TENSOR EIGENVALUES:
 A  0.89175E+00  B  0.13679E+01  C  0.89307E+00
 PRINCIPAL AXES:
         X             Y             Z
 A  0.78135E+00 -0.13655E-01 -0.62394E+00
 B  0.81024E-02  0.99990E+00 -0.11736E-01
 C  0.62404E+00  0.41148E-02  0.78138E+00
 NON BONDING WANNIER FUNCTION
 DISTANCE CENTROID-ATOM    2(  0  0  0) :   0.87178E+00
 ATOMIC POPULATION DATA:
  2 BA(  0  0  0)  1.0044
 A.O. POPULATIONS OF ATOM    2(  0  0  0):
   0.0365   0.2425  -0.0134   0.0000   0.1157   0.0000   0.0000   0.6229
   0.0000   0.0000   0.0000   0.0000   0.0000   0.0000   0.0000  -0.0000
   0.0000   0.0000   0.0000
~~~~~~~~~~~~~~~~~~~~~~~~~~~~~~~~~~~~~~~~~~~~~~~~~~~~~~~~~~~~~~~~~~~~~~~~~~~~~~~~
 WANNIER NUMBER   43 ATOMIC EXTENT  1.0330
 CENTROID'S COORDINATES R0:   -0.39734E+01   -0.58564E+01   -0.39426E+01
 EXPECTATION VALUE OF (R-R0)**2:  0.16628E+01
 SECOND ORDER TENSOR IN CARTESIAN AXES:
         X             Y             Z
 X  0.42778E+00 -0.24427E-03  0.25354E-03
 Y -0.24427E-03  0.73934E+00 -0.16923E+00
 Z  0.25354E-03 -0.16923E+00  0.49570E+00
 TENSOR EIGENVALUES:
 A  0.42778E+00  B  0.82604E+00  C  0.40901E+00
 PRINCIPAL AXES:
         X             Y             Z
 A  0.99998E+00  0.35196E-02  0.50365E-02
 B -0.83617E-03  0.89001E+00 -0.45594E+00
 C -0.60873E-02  0.45593E+00  0.88999E+00
 NON BONDING WANNIER FUNCTION
 DISTANCE CENTROID-ATOM    5(  0  0  0) :   0.54941E+00
 ATOMIC POPULATION DATA:
  5 F (  0  0  0)  0.9839   1 BA( -1  0  0)  0.0102
 A.O. POPULATIONS OF ATOM    5(  0  0  0):
   0.0014  -0.0085   0.0734   0.1188   0.0837   0.0000   0.1916   0.0467
   0.0000   0.1815   0.0435   0.0000   0.2031   0.0487   0.0000   0.0000
   0.0000   0.0000   0.0000
 A.O. POPULATIONS OF ATOM    1( -1  0  0):
   0.0000  -0.0011   0.0048  -0.0000  -0.0003  -0.0003   0.0000  -0.0003
  -0.0001   0.0000   0.0000   0.0003   0.0002   0.0000   0.0000   0.0000
   0.0042   0.0028   0.0000
~~~~~~~~~~~~~~~~~~~~~~~~~~~~~~~~~~~~~~~~~~~~~~~~~~~~~~~~~~~~~~~~~~~~~~~~~~~~~~~~
 WANNIER NUMBER   44 ATOMIC EXTENT  1.1577
 CENTROID'S COORDINATES R0:   -0.39733E+01   -0.45135E+01    0.73141E+00
 EXPECTATION VALUE OF (R-R0)**2:  0.17139E+01
 SECOND ORDER TENSOR IN CARTESIAN AXES:
         X             Y             Z
 X  0.46737E+00  0.85853E-03 -0.12278E-02
 Y  0.85853E-03  0.59058E+00 -0.16455E+00
 Z -0.12278E-02 -0.16455E+00  0.65594E+00
 TENSOR EIGENVALUES:
 A  0.46736E+00  B  0.45549E+00  C  0.79103E+00
 PRINCIPAL AXES:
         X             Y             Z
 A  0.99994E+00 -0.10451E-01 -0.26093E-02
 B  0.97336E-02  0.77285E+00  0.63452E+00
 C -0.46150E-02 -0.63450E+00  0.77291E+00
 BONDING WANNIER FUNCTION BETWEEN ATOMS:
 A:   7 F (  0  0  0) X -0.397391E+01 Y -0.492279E+01 Z  0.119477E+01 (AU)
 B:   3 ZN(  0  0  0) X -0.397391E+01 Y -0.251798E+01 Z -0.169484E+01 (AU)
 DISTANCE OF THE CENTROID FROM THE ATOMS A,B AND FROM THE A-B BOND:
  0.61821E+00  0.31415E+01  0.18172E-01
 POLARISATION FRACTION (0: COVALENT; 1: VERY IONIC)  0.67125E+00
 ATOMIC POPULATION DATA:
  3 ZN(  0  0  0)  0.0703   7 F (  0  0  0)  0.9267
 A.O. POPULATIONS OF ATOM    3(  0  0  0):
  -0.0000  -0.0000   0.0009  -0.0018   0.0046   0.0268   0.0000   0.0136
   0.0228  -0.0000  -0.0000  -0.0000   0.0000   0.0004   0.0006  -0.0000
   0.0000  -0.0001   0.0000   0.0000   0.0003   0.0000   0.0000  -0.0000
   0.0000  -0.0002  -0.0000   0.0000   0.0005  -0.0000   0.0017   0.0003
   0.0000
 A.O. POPULATIONS OF ATOM    7(  0  0  0):
   0.0012  -0.0066   0.0561   0.1020   0.0595   0.0000   0.1000   0.1329
   0.0000   0.0958   0.1272   0.0000   0.1111   0.1475   0.0000   0.0000
   0.0001   0.0000   0.0000
~~~~~~~~~~~~~~~~~~~~~~~~~~~~~~~~~~~~~~~~~~~~~~~~~~~~~~~~~~~~~~~~~~~~~~~~~~~~~~~~
 WANNIER NUMBER   45 ATOMIC EXTENT  0.9954
 CENTROID'S COORDINATES R0:   -0.38458E+01    0.29590E+01    0.36800E+01
 EXPECTATION VALUE OF (R-R0)**2:  0.58429E+00
 SECOND ORDER TENSOR IN CARTESIAN AXES:
         X             Y             Z
 X  0.17517E+00  0.26902E-01 -0.51796E-02
 Y  0.26902E-01  0.24925E+00 -0.45301E-01
 Z -0.51796E-02 -0.45301E-01  0.15987E+00
 TENSOR EIGENVALUES:
 A  0.16903E+00  B  0.27539E+00  C  0.13987E+00
 PRINCIPAL AXES:
         X             Y             Z
 A  0.94795E+00 -0.16362E+00  0.27318E+00
 B  0.25903E+00  0.89520E+00 -0.36267E+00
 C -0.18521E+00  0.41455E+00  0.89098E+00
 NON BONDING WANNIER FUNCTION
 DISTANCE CENTROID-ATOM    4(  0  0  0) :   0.48859E+00
 ATOMIC POPULATION DATA:
  4 ZN(  0  0  0)  1.0023
 A.O. POPULATIONS OF ATOM    4(  0  0  0):
  -0.0000  -0.0045   0.0724   0.0510   0.0012  -0.0009   0.0002   0.0003
   0.0002  -0.0007  -0.0085  -0.0014   0.0194   0.2310   0.0371   0.0049
   0.0573   0.0092   0.0149   0.0116   0.0662   0.1476   0.0529   0.0090
   0.0069   0.0391   0.0879   0.0318   0.0038   0.0028   0.0140   0.0330
   0.0126
~~~~~~~~~~~~~~~~~~~~~~~~~~~~~~~~~~~~~~~~~~~~~~~~~~~~~~~~~~~~~~~~~~~~~~~~~~~~~~~~
 WANNIER NUMBER   46 ATOMIC EXTENT  1.1546
 CENTROID'S COORDINATES R0:   -0.39751E+01   -0.49253E+01   -0.37629E+01
 EXPECTATION VALUE OF (R-R0)**2:  0.17158E+01
 SECOND ORDER TENSOR IN CARTESIAN AXES:
         X             Y             Z
 X  0.46000E+00 -0.12356E-02 -0.11306E-02
 Y -0.12356E-02  0.62823E+00  0.16494E+00
 Z -0.11306E-02  0.16494E+00  0.62755E+00
 TENSOR EIGENVALUES:
 A  0.45999E+00  B  0.79283E+00  C  0.46295E+00
 PRINCIPAL AXES:
         X             Y             Z
 A  0.99969E+00  0.20841E-01 -0.13769E-01
 B -0.50271E-02  0.70782E+00  0.70637E+00
 C  0.24468E-01 -0.70608E+00  0.70771E+00
 BONDING WANNIER FUNCTION BETWEEN ATOMS:
 A:   5 F (  0  0  0) X -0.397391E+01 Y -0.536696E+01 Z -0.419211E+01 (AU)
 B:   3 ZN(  0  0  0) X -0.397391E+01 Y -0.251798E+01 Z -0.169484E+01 (AU)
 DISTANCE OF THE CENTROID FROM THE ATOMS A,B AND FROM THE A-B BOND:
  0.61592E+00  0.31736E+01  0.31674E-01
 POLARISATION FRACTION (0: COVALENT; 1: VERY IONIC)  0.67528E+00
 ATOMIC POPULATION DATA:
  3 ZN(  0  0  0)  0.0707   5 F (  0  0  0)  0.9279
 A.O. POPULATIONS OF ATOM    3(  0  0  0):
  -0.0000   0.0000   0.0009  -0.0016   0.0028   0.0298  -0.0000   0.0197
   0.0158  -0.0000  -0.0000  -0.0000   0.0000   0.0005   0.0004  -0.0000
   0.0000  -0.0000   0.0000   0.0000   0.0003   0.0001   0.0000   0.0000
   0.0000  -0.0002  -0.0001  -0.0000   0.0001   0.0000   0.0016   0.0007
   0.0000
 A.O. POPULATIONS OF ATOM    5(  0  0  0):
   0.0011  -0.0065   0.0554   0.0999   0.0592   0.0000   0.1164   0.1174
   0.0000   0.1122   0.1125   0.0000   0.1303   0.1300   0.0000  -0.0000
   0.0001   0.0000   0.0000
~~~~~~~~~~~~~~~~~~~~~~~~~~~~~~~~~~~~~~~~~~~~~~~~~~~~~~~~~~~~~~~~~~~~~~~~~~~~~~~~
 WANNIER NUMBER   47 ATOMIC EXTENT  0.9984
 CENTROID'S COORDINATES R0:   -0.42521E+01   -0.25833E+01   -0.12963E+01
 EXPECTATION VALUE OF (R-R0)**2:  0.59428E+00
 SECOND ORDER TENSOR IN CARTESIAN AXES:
         X             Y             Z
 X  0.19401E+00  0.17639E-01 -0.60583E-01
 Y  0.17639E-01  0.15830E+00 -0.62039E-02
 Z -0.60583E-01 -0.62039E-02  0.24197E+00
 TENSOR EIGENVALUES:
 A  0.14349E+00  B  0.16584E+00  C  0.28495E+00
 PRINCIPAL AXES:
         X             Y             Z
 A  0.67016E+00 -0.64238E+00  0.37179E+00
 B  0.47972E+00  0.75712E+00  0.44345E+00
 C -0.56635E+00 -0.11883E+00  0.81555E+00
 NON BONDING WANNIER FUNCTION
 DISTANCE CENTROID-ATOM    3(  0  0  0) :   0.49041E+00
 ATOMIC POPULATION DATA:
  3 ZN(  0  0  0)  1.0008
 A.O. POPULATIONS OF ATOM    3(  0  0  0):
  -0.0001  -0.0044   0.0705   0.0497   0.0016  -0.0000   0.0002  -0.0000
   0.0007  -0.0035  -0.0001  -0.0069   0.0955   0.0044   0.1869   0.0238
   0.0011   0.0466   0.0675   0.1780   0.0211   0.0246   0.0002   0.0404
   0.1070   0.0124   0.0147   0.0001   0.0159   0.0427   0.0042   0.0057
   0.0000
~~~~~~~~~~~~~~~~~~~~~~~~~~~~~~~~~~~~~~~~~~~~~~~~~~~~~~~~~~~~~~~~~~~~~~~~~~~~~~~~
 WANNIER NUMBER   48 ATOMIC EXTENT  0.9976
 CENTROID'S COORDINATES R0:   -0.35610E+01   -0.26742E+01   -0.18398E+01
 EXPECTATION VALUE OF (R-R0)**2:  0.64308E+00
 SECOND ORDER TENSOR IN CARTESIAN AXES:
         X             Y             Z
 X  0.29017E+00 -0.56159E-01 -0.47723E-01
 Y -0.56159E-01  0.17060E+00  0.48178E-02
 Z -0.47723E-01  0.48178E-02  0.18231E+00
 TENSOR EIGENVALUES:
 A  0.32720E+00  B  0.14216E+00  C  0.17372E+00
 PRINCIPAL AXES:
         X             Y             Z
 A  0.89336E+00 -0.32977E+00 -0.30522E+00
 B  0.43770E+00  0.79225E+00  0.42516E+00
 C  0.10161E+00 -0.51342E+00  0.85210E+00
 NON BONDING WANNIER FUNCTION
 DISTANCE CENTROID-ATOM    3(  0  0  0) :   0.46465E+00
 ATOMIC POPULATION DATA:
  3 ZN(  0  0  0)  1.0012
 A.O. POPULATIONS OF ATOM    3(  0  0  0):
  -0.0000  -0.0036   0.0573   0.0407   0.0015   0.0016   0.0007   0.0002
   0.0000  -0.0073  -0.0010  -0.0009   0.1972   0.0275   0.0248   0.0492
   0.0070   0.0061   0.0583   0.0670   0.0304   0.1069   0.0668   0.0346
   0.0402   0.0180   0.0635   0.0402   0.0126   0.0161   0.0065   0.0232
   0.0160
~~~~~~~~~~~~~~~~~~~~~~~~~~~~~~~~~~~~~~~~~~~~~~~~~~~~~~~~~~~~~~~~~~~~~~~~~~~~~~~~
 WANNIER NUMBER   49 ATOMIC EXTENT  0.9951
 CENTROID'S COORDINATES R0:   -0.39130E+01    0.23284E+01    0.33983E+01
 EXPECTATION VALUE OF (R-R0)**2:  0.58003E+00
 SECOND ORDER TENSOR IN CARTESIAN AXES:
         X             Y             Z
 X  0.16574E+00 -0.11326E-01 -0.10345E-01
 Y -0.11326E-01  0.15916E+00  0.47651E-01
 Z -0.10345E-01  0.47651E-01  0.25513E+00
 TENSOR EIGENVALUES:
 A  0.16561E+00  B  0.13791E+00  C  0.27652E+00
 PRINCIPAL AXES:
         X             Y             Z
 A  0.96277E+00 -0.17619E+00  0.20503E+00
 B  0.23987E+00  0.90654E+00 -0.34735E+00
 C -0.12467E+00  0.38359E+00  0.91505E+00
 NON BONDING WANNIER FUNCTION
 DISTANCE CENTROID-ATOM    4(  0  0  0) :   0.49068E+00
 ATOMIC POPULATION DATA:
  4 ZN(  0  0  0)  1.0025
 A.O. POPULATIONS OF ATOM    4(  0  0  0):
  -0.0001  -0.0044   0.0720   0.0507   0.0013  -0.0008   0.0000   0.0002
   0.0003  -0.0001  -0.0014  -0.0088   0.0046   0.0382   0.2423   0.0012
   0.0096   0.0607   0.1667   0.0161   0.0975   0.0150   0.0002   0.0995
   0.0097   0.0576   0.0089   0.0001   0.0377   0.0039   0.0207   0.0030
   0.0000
~~~~~~~~~~~~~~~~~~~~~~~~~~~~~~~~~~~~~~~~~~~~~~~~~~~~~~~~~~~~~~~~~~~~~~~~~~~~~~~~
 WANNIER NUMBER   50 ATOMIC EXTENT  0.9967
 CENTROID'S COORDINATES R0:   -0.35256E+01    0.25241E+01    0.37258E+01
 EXPECTATION VALUE OF (R-R0)**2:  0.63808E+00
 SECOND ORDER TENSOR IN CARTESIAN AXES:
         X             Y             Z
 X  0.31659E+00  0.55008E-02 -0.45672E-01
 Y  0.55008E-02  0.16485E+00  0.11872E-01
 Z -0.45672E-01  0.11872E-01  0.15664E+00
 TENSOR EIGENVALUES:
 A  0.32875E+00  B  0.17107E+00  C  0.13827E+00
 PRINCIPAL AXES:
         X             Y             Z
 A  0.96669E+00  0.13932E-01 -0.25557E+00
 B  0.99461E-01  0.89959E+00  0.42525E+00
 C  0.23583E+00 -0.43650E+00  0.86824E+00
 NON BONDING WANNIER FUNCTION
 DISTANCE CENTROID-ATOM    4(  0  0  0) :   0.46434E+00
 ATOMIC POPULATION DATA:
  4 ZN(  0  0  0)  1.0016
 A.O. POPULATIONS OF ATOM    4(  0  0  0):
  -0.0000  -0.0036   0.0573   0.0407   0.0015   0.0017   0.0004   0.0000
   0.0000  -0.0087  -0.0000  -0.0006   0.2348   0.0000   0.0173   0.0584
   0.0000   0.0044   0.0325   0.0529   0.0048   0.2388   0.0000   0.0192
   0.0318   0.0029   0.1421   0.0000   0.0067   0.0127   0.0011   0.0527
   0.0000
~~~~~~~~~~~~~~~~~~~~~~~~~~~~~~~~~~~~~~~~~~~~~~~~~~~~~~~~~~~~~~~~~~~~~~~~~~~~~~~~
 WANNIER NUMBER   51 ATOMIC EXTENT  0.9983
 CENTROID'S COORDINATES R0:   -0.42922E+01    0.26818E+01    0.35552E+01
 EXPECTATION VALUE OF (R-R0)**2:  0.64852E+00
 SECOND ORDER TENSOR IN CARTESIAN AXES:
         X             Y             Z
 X  0.23149E+00 -0.38013E-01  0.78578E-01
 Y -0.38013E-01  0.19575E+00 -0.28649E-01
 Z  0.78578E-01 -0.28649E-01  0.22128E+00
 TENSOR EIGENVALUES:
 A  0.32278E+00  B  0.17885E+00  C  0.14690E+00
 PRINCIPAL AXES:
         X             Y             Z
 A  0.69057E+00 -0.34946E+00  0.63324E+00
 B  0.14989E+00  0.92567E+00  0.34737E+00
 C -0.70756E+00 -0.14497E+00  0.69162E+00
 NON BONDING WANNIER FUNCTION
 DISTANCE CENTROID-ATOM    4(  0  0  0) :   0.46170E+00
 ATOMIC POPULATION DATA:
  4 ZN(  0  0  0)  1.0008
 A.O. POPULATIONS OF ATOM    4(  0  0  0):
  -0.0000  -0.0036   0.0589   0.0416   0.0013   0.0002   0.0004   0.0001
   0.0001  -0.0042  -0.0011  -0.0037   0.1167   0.0311   0.1010   0.0292
   0.0079   0.0251   0.0054   0.1442   0.0708   0.0517   0.0549   0.0033
   0.0866   0.0420   0.0309   0.0330   0.0015   0.0346   0.0157   0.0118
   0.0131
~~~~~~~~~~~~~~~~~~~~~~~~~~~~~~~~~~~~~~~~~~~~~~~~~~~~~~~~~~~~~~~~~~~~~~~~~~~~~~~~
 WANNIER NUMBER   52 ATOMIC EXTENT  1.0000
 CENTROID'S COORDINATES R0:   -0.39230E+01    0.24894E+01    0.37629E+01
 EXPECTATION VALUE OF (R-R0)**2:  0.41891E-01
 SECOND ORDER TENSOR IN CARTESIAN AXES:
         X             Y             Z
 X  0.13597E-01 -0.60696E-03 -0.17836E-02
 Y -0.60696E-03  0.12854E-01  0.10261E-02
 Z -0.17836E-02  0.10261E-02  0.15439E-01
 TENSOR EIGENVALUES:
 A  0.12491E-01  B  0.12521E-01  C  0.16879E-01
 PRINCIPAL AXES:
         X             Y             Z
 A  0.38556E+00 -0.77385E+00  0.50249E+00
 B  0.77683E+00  0.56611E+00  0.27577E+00
 C -0.49787E+00  0.28402E+00  0.81942E+00
 NON BONDING WANNIER FUNCTION
 DISTANCE CENTROID-ATOM    4(  0  0  0) :   0.10215E+00
 ATOMIC POPULATION DATA:
  4 ZN(  0  0  0)  1.0000
 A.O. POPULATIONS OF ATOM    4(  0  0  0):
  -0.0063   0.2658  -0.0035  -0.0062   0.0003  -0.0001  -0.0000  -0.0000
  -0.0000   0.1912   0.0604   0.5191  -0.0052  -0.0016  -0.0140   0.0000
   0.0000   0.0001   0.0000   0.0000   0.0000   0.0000   0.0000   0.0000
   0.0000   0.0000   0.0000   0.0000   0.0000   0.0000   0.0000   0.0000
   0.0000
~~~~~~~~~~~~~~~~~~~~~~~~~~~~~~~~~~~~~~~~~~~~~~~~~~~~~~~~~~~~~~~~~~~~~~~~~~~~~~~~
 WANNIER NUMBER   53 ATOMIC EXTENT  1.1222
 CENTROID'S COORDINATES R0:   -0.39752E+01   -0.48922E+00   -0.43417E+01
 EXPECTATION VALUE OF (R-R0)**2:  0.16835E+01
 SECOND ORDER TENSOR IN CARTESIAN AXES:
         X             Y             Z
 X  0.44105E+00 -0.23653E-03 -0.14647E-02
 Y -0.23653E-03  0.45885E+00 -0.66881E-01
 Z -0.14647E-02 -0.66881E-01  0.78363E+00
 TENSOR EIGENVALUES:
 A  0.44099E+00  B  0.44567E+00  C  0.79687E+00
 PRINCIPAL AXES:
         X             Y             Z
 A  0.99383E+00  0.10801E+00  0.25331E-01
 B -0.11087E+00  0.97502E+00  0.19247E+00
 C -0.39091E-02 -0.19409E+00  0.98098E+00
 BONDING WANNIER FUNCTION BETWEEN ATOMS:
 A:  11 F (  0  0  0) X -0.397391E+01 Y -0.431780E+00 Z -0.491041E+01 (AU)
 B:   3 ZN(  0  0  0) X -0.397391E+01 Y -0.251798E+01 Z -0.169484E+01 (AU)
 DISTANCE OF THE CENTROID FROM THE ATOMS A,B AND FROM THE A-B BOND:
  0.57161E+00  0.33349E+01  0.26135E+00
 POLARISATION FRACTION (0: COVALENT; 1: VERY IONIC)  0.73475E+00
 ATOMIC POPULATION DATA:
  3 ZN(  0  0  0)  0.0506  11 F (  0  0  0)  0.9426
 A.O. POPULATIONS OF ATOM    3(  0  0  0):
  -0.0000  -0.0000   0.0005  -0.0010   0.0015   0.0207  -0.0000   0.0114
   0.0149  -0.0000  -0.0000  -0.0000   0.0000   0.0003   0.0004   0.0000
  -0.0000  -0.0000   0.0000   0.0000   0.0003   0.0000   0.0000  -0.0000
   0.0000  -0.0002  -0.0000   0.0000   0.0002   0.0000   0.0013   0.0003
   0.0000
 A.O. POPULATIONS OF ATOM   11(  0  0  0):
   0.0015  -0.0078   0.0677   0.1174   0.0734   0.0000   0.0004   0.2216
   0.0000   0.0008   0.2162   0.0000   0.0013   0.2502   0.0000   0.0000
   0.0000   0.0000   0.0000
~~~~~~~~~~~~~~~~~~~~~~~~~~~~~~~~~~~~~~~~~~~~~~~~~~~~~~~~~~~~~~~~~~~~~~~~~~~~~~~~
 WANNIER NUMBER   54 ATOMIC EXTENT  1.1195
 CENTROID'S COORDINATES R0:   -0.46509E+00   -0.23862E+01   -0.15227E+01
 EXPECTATION VALUE OF (R-R0)**2:  0.17131E+01
 SECOND ORDER TENSOR IN CARTESIAN AXES:
         X             Y             Z
 X  0.73766E+00  0.89247E-01 -0.12278E+00
 Y  0.89247E-01  0.46233E+00 -0.41710E-01
 Z -0.12278E+00 -0.41710E-01  0.51306E+00
 TENSOR EIGENVALUES:
 A  0.81896E+00  B  0.43494E+00  C  0.45915E+00
 PRINCIPAL AXES:
         X             Y             Z
 A  0.88145E+00  0.26621E+00 -0.39010E+00
 B -0.20730E+00  0.96026E+00  0.18689E+00
 C  0.42435E+00 -0.83864E-01  0.90160E+00
 BONDING WANNIER FUNCTION BETWEEN ATOMS:
 A:  10 F (  0  0  0) X  0.332204E-17 Y -0.219607E+01 Z -0.177974E+01 (AU)
 B:   3 ZN(  0  0  0) X -0.397391E+01 Y -0.251798E+01 Z -0.169484E+01 (AU)
 DISTANCE OF THE CENTROID FROM THE ATOMS A,B AND FROM THE A-B BOND:
  0.56436E+00  0.35155E+01  0.28979E+00
 POLARISATION FRACTION (0: COVALENT; 1: VERY IONIC)  0.75712E+00
 ATOMIC POPULATION DATA:
  3 ZN(  0  0  0)  0.0461  10 F (  0  0  0)  0.9439
 A.O. POPULATIONS OF ATOM    3(  0  0  0):
  -0.0000  -0.0000   0.0004  -0.0007   0.0008   0.0174   0.0257   0.0000
   0.0004  -0.0000  -0.0000  -0.0000   0.0005   0.0000   0.0000  -0.0001
   0.0000  -0.0000   0.0001   0.0000   0.0000   0.0002   0.0000  -0.0000
  -0.0000   0.0000  -0.0001   0.0000   0.0003   0.0001  -0.0000   0.0011
  -0.0000
 A.O. POPULATIONS OF ATOM   10(  0  0  0):
   0.0015  -0.0078   0.0677   0.1140   0.0760   0.1432   0.0271   0.0534
   0.1403   0.0263   0.0511   0.1649   0.0294   0.0569   0.0000   0.0000
   0.0000   0.0000   0.0000
[...]
 DISTANCE CENTROID-ATOM    7(  0  0  0) :   0.55966E+00
 ATOMIC POPULATION DATA:
  7 F (  0  0  0)  0.9830   2 BA( -1  1  0)  0.0122
 A.O. POPULATIONS OF ATOM    7(  0  0  0):
   0.0013  -0.0081   0.0704   0.1078   0.0881   0.1598   0.0061   0.0735
   0.1531   0.0054   0.0694   0.1720   0.0060   0.0781   0.0000   0.0000
   0.0000  -0.0000   0.0000
 A.O. POPULATIONS OF ATOM    2( -1  1  0):
  -0.0000  -0.0016   0.0059  -0.0010  -0.0001  -0.0006  -0.0005  -0.0000
  -0.0003   0.0000   0.0005   0.0000   0.0002   0.0001   0.0000   0.0060
   0.0003   0.0026   0.0007
~~~~~~~~~~~~~~~~~~~~~~~~~~~~~~~~~~~~~~~~~~~~~~~~~~~~~~~~~~~~~~~~~~~~~~~~~~~~~~~~
 WANNIER NUMBER   62 ATOMIC EXTENT  0.9968
 CENTROID'S COORDINATES R0:   -0.39881E+01   -0.26253E+01   -0.21709E+01
 EXPECTATION VALUE OF (R-R0)**2:  0.58631E+00
 SECOND ORDER TENSOR IN CARTESIAN AXES:
         X             Y             Z
 X  0.16777E+00  0.36683E-02  0.22234E-02
 Y  0.36683E-02  0.15270E+00  0.28431E-01
 Z  0.22234E-02  0.28431E-01  0.26584E+00
 TENSOR EIGENVALUES:
 A  0.16811E+00  B  0.14553E+00  C  0.27267E+00
 PRINCIPAL AXES:
         X             Y             Z
 A  0.99021E+00  0.12635E+00 -0.59279E-01
 B -0.13658E+00  0.96464E+00 -0.22543E+00
 C  0.28700E-01  0.23132E+00  0.97245E+00
 NON BONDING WANNIER FUNCTION
 DISTANCE CENTROID-ATOM    3(  0  0  0) :   0.48825E+00
 ATOMIC POPULATION DATA:
  3 ZN(  0  0  0)  1.0016
 A.O. POPULATIONS OF ATOM    3(  0  0  0):
  -0.0001  -0.0044   0.0731   0.0513   0.0013  -0.0014   0.0000  -0.0000
   0.0001  -0.0000  -0.0006  -0.0098   0.0002   0.0163   0.2713   0.0001
   0.0041   0.0677   0.2484   0.0010   0.0335   0.0085   0.0001   0.1487
   0.0006   0.0199   0.0049   0.0000   0.0576   0.0002   0.0076   0.0015
   0.0000
~~~~~~~~~~~~~~~~~~~~~~~~~~~~~~~~~~~~~~~~~~~~~~~~~~~~~~~~~~~~~~~~~~~~~~~~~~~~~~~~
 WANNIER NUMBER   63 ATOMIC EXTENT  1.0346
 CENTROID'S COORDINATES R0:   -0.35224E+01    0.52917E+01    0.10426E+01
 EXPECTATION VALUE OF (R-R0)**2:  0.16296E+01
 SECOND ORDER TENSOR IN CARTESIAN AXES:
         X             Y             Z
 X  0.65977E+00 -0.35821E-01 -0.17293E+00
 Y -0.35821E-01  0.42836E+00  0.34187E-01
 Z -0.17293E+00  0.34187E-01  0.54145E+00
 TENSOR EIGENVALUES:
 A  0.79002E+00  B  0.42696E+00  C  0.41259E+00
 PRINCIPAL AXES:
         X             Y             Z
 A  0.80469E+00 -0.13437E+00 -0.57829E+00
 B  0.43974E+00  0.78931E+00  0.42851E+00
 C  0.39887E+00 -0.59911E+00  0.69424E+00
 NON BONDING WANNIER FUNCTION
 DISTANCE CENTROID-ATOM    6(  0  0  0) :   0.55111E+00
 ATOMIC POPULATION DATA:
  1 BA(  0  0  0)  0.0122   6 F (  0  0  0)  0.9830
 A.O. POPULATIONS OF ATOM    1(  0  0  0):
   0.0000  -0.0012   0.0053  -0.0003   0.0001  -0.0001  -0.0005  -0.0001
  -0.0003   0.0000   0.0004   0.0001   0.0001   0.0001   0.0000   0.0047
   0.0007   0.0017   0.0015
 A.O. POPULATIONS OF ATOM    6(  0  0  0):
   0.0013  -0.0079   0.0692   0.1062   0.0863   0.1625   0.0034   0.0765
   0.1540   0.0028   0.0720   0.1729   0.0031   0.0809   0.0000  -0.0000
   0.0000  -0.0000   0.0000
~~~~~~~~~~~~~~~~~~~~~~~~~~~~~~~~~~~~~~~~~~~~~~~~~~~~~~~~~~~~~~~~~~~~~~~~~~~~~~~~
 WANNIER NUMBER   64 ATOMIC EXTENT  1.0444
 CENTROID'S COORDINATES R0:   -0.13325E-01    0.23835E+01    0.32512E+01
 EXPECTATION VALUE OF (R-R0)**2:  0.16215E+01
 SECOND ORDER TENSOR IN CARTESIAN AXES:
         X             Y             Z
 X  0.42992E+00 -0.30445E-02  0.78992E-02
 Y -0.30445E-02  0.44046E+00 -0.10585E+00
 Z  0.78992E-02 -0.10585E+00  0.75117E+00
 TENSOR EIGENVALUES:
 A  0.42974E+00  B  0.40781E+00  C  0.78400E+00
 PRINCIPAL AXES:
         X             Y             Z
 A  0.99936E+00 -0.18354E-01 -0.30603E-01
 B  0.26548E-01  0.95546E+00  0.29393E+00
 C  0.23845E-01 -0.29456E+00  0.95534E+00
 ATOMIC POPULATION DATA:
  9 F (  0  0  0)  0.9784
 A.O. POPULATIONS OF ATOM    9(  0  0  0):
   0.0011  -0.0074   0.0632   0.1035   0.0737   0.0001   0.0277   0.2194
   0.0001   0.0266   0.2082   0.0002   0.0297   0.2324   0.0000   0.0000
   0.0000   0.0000   0.0000
~~~~~~~~~~~~~~~~~~~~~~~~~~~~~~~~~~~~~~~~~~~~~~~~~~~~~~~~~~~~~~~~~~~~~~~~~~~~~~~~
 WANNIER NUMBER   65 ATOMIC EXTENT  1.1206
 CENTROID'S COORDINATES R0:    0.47218E+00   -0.23811E+01   -0.15292E+01
 EXPECTATION VALUE OF (R-R0)**2:  0.17305E+01
 SECOND ORDER TENSOR IN CARTESIAN AXES:
         X             Y             Z
 X  0.75485E+00 -0.86786E-01  0.12096E+00
 Y -0.86786E-01  0.46329E+00 -0.39085E-01
 Z  0.12096E+00 -0.39085E-01  0.51240E+00
 TENSOR EIGENVALUES:
 A  0.82959E+00  B  0.43825E+00  C  0.46270E+00
 PRINCIPAL AXES:
         X             Y             Z
 A  0.89363E+00 -0.25140E+00  0.37177E+00
 B  0.18557E+00  0.96123E+00  0.20395E+00
 C -0.40863E+00 -0.11327E+00  0.90564E+00
 BONDING WANNIER FUNCTION BETWEEN ATOMS:
 A:  10 F (  0  0  0) X  0.332204E-17 Y -0.219607E+01 Z -0.177974E+01 (AU)
 B:   3 ZN(  1 -1  0) X  0.397391E+01 Y -0.251798E+01 Z -0.169484E+01 (AU)
 DISTANCE OF THE CENTROID FROM THE ATOMS A,B AND FROM THE A-B BOND:
  0.56562E+00  0.35083E+01  0.28115E+00
 POLARISATION FRACTION (0: COVALENT; 1: VERY IONIC)  0.75385E+00
 ATOMIC POPULATION DATA:
 10 F (  0  0  0)  0.9435   3 ZN(  1 -1  0)  0.0464
 A.O. POPULATIONS OF ATOM   10(  0  0  0):
   0.0015  -0.0078   0.0678   0.1142   0.0762   0.1467   0.0257   0.0508
   0.1440   0.0249   0.0485   0.1692   0.0278   0.0540   0.0000   0.0000
   0.0000   0.0000   0.0000
 A.O. POPULATIONS OF ATOM    3(  1 -1  0):
  -0.0000   0.0000   0.0001  -0.0009   0.0008   0.0180   0.0261  -0.0000
   0.0004   0.0000  -0.0000   0.0000   0.0002  -0.0000   0.0000   0.0000
   0.0000  -0.0000   0.0002   0.0000   0.0000   0.0006   0.0000  -0.0000
   0.0000   0.0000  -0.0000   0.0000   0.0001   0.0000  -0.0000   0.0006
  -0.0000
~~~~~~~~~~~~~~~~~~~~~~~~~~~~~~~~~~~~~~~~~~~~~~~~~~~~~~~~~~~~~~~~~~~~~~~~~~~~~~~~
 WANNIER NUMBER   66 ATOMIC EXTENT  1.0364
 CENTROID'S COORDINATES R0:   -0.35206E+01   -0.48284E+01    0.14972E+01
 EXPECTATION VALUE OF (R-R0)**2:  0.16305E+01
 SECOND ORDER TENSOR IN CARTESIAN AXES:
         X             Y             Z
 X  0.66692E+00  0.39956E-01  0.17607E+00
 Y  0.39956E-01  0.41761E+00  0.31296E-01
 Z  0.17607E+00  0.31296E-01  0.54595E+00
 TENSOR EIGENVALUES:
 A  0.79934E+00  B  0.41037E+00  C  0.42077E+00
 PRINCIPAL AXES:
         X             Y             Z
 A  0.80636E+00  0.13167E+00  0.57658E+00
 B  0.23772E-01  0.96690E+00 -0.25406E+00
 C -0.59094E+00  0.21857E+00  0.77654E+00
 NON BONDING WANNIER FUNCTION
 DISTANCE CENTROID-ATOM    7(  0  0  0) :   0.55309E+00
 ATOMIC POPULATION DATA:
  2 BA(  0  0  0)  0.0129   7 F (  0  0  0)  0.9822
 A.O. POPULATIONS OF ATOM    2(  0  0  0):
   0.0000  -0.0014   0.0056  -0.0004  -0.0000  -0.0003  -0.0007  -0.0000
  -0.0003   0.0000   0.0005   0.0000   0.0002   0.0001   0.0000   0.0060
   0.0003   0.0026   0.0006
 A.O. POPULATIONS OF ATOM    7(  0  0  0):
   0.0013  -0.0079   0.0693   0.1062   0.0869   0.1621   0.0059   0.0732
   0.1543   0.0052   0.0688   0.1736   0.0058   0.0776   0.0000  -0.0000
   0.0000  -0.0000   0.0000
~~~~~~~~~~~~~~~~~~~~~~~~~~~~~~~~~~~~~~~~~~~~~~~~~~~~~~~~~~~~~~~~~~~~~~~~~~~~~~~~
 WANNIER NUMBER   67 ATOMIC EXTENT  1.0326
 CENTROID'S COORDINATES R0:   -0.35381E+01    0.66887E+00    0.43347E+00
 EXPECTATION VALUE OF (R-R0)**2:  0.15589E+01
 SECOND ORDER TENSOR IN CARTESIAN AXES:
         X             Y             Z
 X  0.61164E+00  0.12978E+00 -0.10283E+00
 Y  0.12978E+00  0.49020E+00 -0.48903E-01
 Z -0.10283E+00 -0.48903E-01  0.45710E+00
 TENSOR EIGENVALUES:
 A  0.73952E+00  B  0.39660E+00  C  0.42283E+00
 PRINCIPAL AXES:
         X             Y             Z
 A  0.79141E+00  0.48496E+00 -0.37213E+00
 B -0.60314E+00  0.52048E+00 -0.60442E+00
 C -0.99434E-01  0.70279E+00  0.70441E+00
 NON BONDING WANNIER FUNCTION
 DISTANCE CENTROID-ATOM   12(  0  0  0) :   0.53407E+00
 ATOMIC POPULATION DATA:
 12 F (  0  0  0)  0.9840
 A.O. POPULATIONS OF ATOM   12(  0  0  0):
   0.0011  -0.0076   0.0648   0.1047   0.0762   0.1617   0.0483   0.0333
   0.1584   0.0462   0.0323   0.1774   0.0514   0.0361   0.0000   0.0000
   0.0000   0.0000  -0.0000
~~~~~~~~~~~~~~~~~~~~~~~~~~~~~~~~~~~~~~~~~~~~~~~~~~~~~~~~~~~~~~~~~~~~~~~~~~~~~~~~
 WANNIER NUMBER   68 ATOMIC EXTENT  1.0261
 CENTROID'S COORDINATES R0:   -0.32684E-02    0.16586E+01    0.37518E+01
 EXPECTATION VALUE OF (R-R0)**2:  0.15295E+01
 SECOND ORDER TENSOR IN CARTESIAN AXES:
         X             Y             Z
 X  0.42261E+00  0.22242E-02  0.78220E-04
 Y  0.22242E-02  0.70388E+00 -0.15846E-02
 Z  0.78220E-04 -0.15846E-02  0.40298E+00
 TENSOR EIGENVALUES:
 A  0.42259E+00  B  0.70391E+00  C  0.40297E+00
 PRINCIPAL AXES:
         X             Y             Z
 A  0.99996E+00 -0.78810E-02  0.46238E-02
 B  0.79053E-02  0.99995E+00 -0.52633E-02
 C -0.45821E-02  0.52997E-02  0.99998E+00
 NON BONDING WANNIER FUNCTION
 DISTANCE CENTROID-ATOM    9(  0  0  0) :   0.53755E+00
 ATOMIC POPULATION DATA:
  9 F (  0  0  0)  0.9872
 A.O. POPULATIONS OF ATOM    9(  0  0  0):
   0.0011  -0.0079   0.0676   0.1084   0.0785   0.0000   0.2433   0.0001
   0.0000   0.2351   0.0001   0.0000   0.2609   0.0001   0.0000   0.0000
   0.0000   0.0000   0.0000
~~~~~~~~~~~~~~~~~~~~~~~~~~~~~~~~~~~~~~~~~~~~~~~~~~~~~~~~~~~~~~~~~~~~~~~~~~~~~~~~
 WANNIER NUMBER   69 ATOMIC EXTENT  1.0318
 CENTROID'S COORDINATES R0:   -0.35386E+01   -0.67369E+00   -0.51080E+01
 EXPECTATION VALUE OF (R-R0)**2:  0.15813E+01
 SECOND ORDER TENSOR IN CARTESIAN AXES:
         X             Y             Z
 X  0.61978E+00 -0.14127E+00 -0.10729E+00
 Y -0.14127E+00  0.50208E+00  0.54318E-01
 Z -0.10729E+00  0.54318E-01  0.45947E+00
 TENSOR EIGENVALUES:
 A  0.76130E+00  B  0.39652E+00  C  0.42352E+00
 PRINCIPAL AXES:
         X             Y             Z
 A  0.78169E+00 -0.50322E+00 -0.36843E+00
 B  0.61249E+00  0.50806E+00  0.60558E+00
 C -0.11756E+00 -0.69903E+00  0.70536E+00
 NON BONDING WANNIER FUNCTION
 DISTANCE CENTROID-ATOM   11(  0  0  0) :   0.53577E+00
 ATOMIC POPULATION DATA:
 11 F (  0  0  0)  0.9844
 A.O. POPULATIONS OF ATOM   11(  0  0  0):
   0.0011  -0.0076   0.0650   0.1050   0.0764   0.1601   0.0498   0.0330
   0.1571   0.0476   0.0321   0.1759   0.0531   0.0358   0.0000   0.0000
   0.0000   0.0000  -0.0000
~~~~~~~~~~~~~~~~~~~~~~~~~~~~~~~~~~~~~~~~~~~~~~~~~~~~~~~~~~~~~~~~~~~~~~~~~~~~~~~~
 WANNIER NUMBER   70 ATOMIC EXTENT  0.9999
 CENTROID'S COORDINATES R0:   -0.39739E+01    0.43175E+00    0.63121E+00
 EXPECTATION VALUE OF (R-R0)**2:  0.45481E-01
 SECOND ORDER TENSOR IN CARTESIAN AXES:
         X             Y             Z
 X  0.15076E-01 -0.99980E-06  0.71736E-06
 Y -0.99980E-06  0.15206E-01  0.75730E-04
 Z  0.71736E-06  0.75730E-04  0.15199E-01
 TENSOR EIGENVALUES:
 A  0.15076E-01  B  0.15278E-01  C  0.15127E-01
 PRINCIPAL AXES:
         X             Y             Z
 A  0.99972E+00  0.17143E-01 -0.16403E-01
 B -0.11406E-02  0.72526E+00  0.68848E+00
 C  0.23699E-01 -0.68826E+00  0.72507E+00
 NON BONDING WANNIER FUNCTION
 DISTANCE CENTROID-ATOM   12(  0  0  0) :   0.34371E-04
 ATOMIC POPULATION DATA:
 12 F (  0  0  0)  1.0000
 A.O. POPULATIONS OF ATOM   12(  0  0  0):
   0.3815   0.6289   0.0029  -0.0118  -0.0015   0.0000   0.0000   0.0000
   0.0000   0.0000   0.0000   0.0000   0.0000   0.0000   0.0000   0.0000
   0.0000   0.0000   0.0000
~~~~~~~~~~~~~~~~~~~~~~~~~~~~~~~~~~~~~~~~~~~~~~~~~~~~~~~~~~~~~~~~~~~~~~~~~~~~~~~~
 WANNIER NUMBER   71 ATOMIC EXTENT  1.0262
 CENTROID'S COORDINATES R0:   -0.29077E-02   -0.16589E+01   -0.17862E+01
 EXPECTATION VALUE OF (R-R0)**2:  0.15305E+01
 SECOND ORDER TENSOR IN CARTESIAN AXES:
         X             Y             Z
 X  0.42245E+00 -0.18872E-02  0.61615E-04
 Y -0.18872E-02  0.70484E+00  0.42334E-02
 Z  0.61615E-04  0.42334E-02  0.40322E+00
 TENSOR EIGENVALUES:
 A  0.42244E+00  B  0.70491E+00  C  0.40316E+00
 PRINCIPAL AXES:
         X             Y             Z
 A  0.99997E+00  0.66128E-02  0.46617E-02
 B -0.66776E-02  0.99988E+00  0.14029E-01
 C -0.45684E-02 -0.14060E-01  0.99989E+00
 NON BONDING WANNIER FUNCTION
 DISTANCE CENTROID-ATOM   10(  0  0  0) :   0.53719E+00
 ATOMIC POPULATION DATA:
 10 F (  0  0  0)  0.9871
 A.O. POPULATIONS OF ATOM   10(  0  0  0):
   0.0011  -0.0079   0.0674   0.1082   0.0784   0.0000   0.2435   0.0000
   0.0000   0.2353   0.0000   0.0000   0.2611   0.0000   0.0000  -0.0000
   0.0000   0.0000   0.0000
~~~~~~~~~~~~~~~~~~~~~~~~~~~~~~~~~~~~~~~~~~~~~~~~~~~~~~~~~~~~~~~~~~~~~~~~~~~~~~~~
 WANNIER NUMBER   72 ATOMIC EXTENT  1.0320
 CENTROID'S COORDINATES R0:   -0.44057E+01    0.67770E+00    0.42865E+00
 EXPECTATION VALUE OF (R-R0)**2:  0.15782E+01
 SECOND ORDER TENSOR IN CARTESIAN AXES:
         X             Y             Z
 X  0.61519E+00 -0.14101E+00  0.10788E+00
 Y -0.14101E+00  0.50239E+00 -0.55588E-01
 Z  0.10788E+00 -0.55588E-01  0.46062E+00
 TENSOR EIGENVALUES:
 A  0.75936E+00  B  0.39577E+00  C  0.42307E+00
 PRINCIPAL AXES:
         X             Y             Z
 A  0.77625E+00 -0.50701E+00  0.37466E+00
 B  0.62073E+00  0.51089E+00 -0.59471E+00
 C  0.11011E+00  0.69421E+00  0.71130E+00
 NON BONDING WANNIER FUNCTION
 DISTANCE CENTROID-ATOM   12(  0  0  0) :   0.53659E+00
 ATOMIC POPULATION DATA:
 12 F (  0  0  0)  0.9843
 A.O. POPULATIONS OF ATOM   12(  0  0  0):
   0.0011  -0.0077   0.0652   0.1052   0.0767   0.1568   0.0512   0.0346
   0.1540   0.0490   0.0336   0.1724   0.0546   0.0375   0.0000   0.0000
   0.0000   0.0000  -0.0000
~~~~~~~~~~~~~~~~~~~~~~~~~~~~~~~~~~~~~~~~~~~~~~~~~~~~~~~~~~~~~~~~~~~~~~~~~~~~~~~~
 WANNIER NUMBER   73 ATOMIC EXTENT  1.1329
 CENTROID'S COORDINATES R0:   -0.39752E+01    0.12711E+00   -0.50812E+01
 EXPECTATION VALUE OF (R-R0)**2:  0.17002E+01
 SECOND ORDER TENSOR IN CARTESIAN AXES:
         X             Y             Z
 X  0.44735E+00 -0.14237E-02  0.10076E-03
 Y -0.14237E-02  0.75534E+00 -0.12286E+00
 Z  0.10076E-03 -0.12286E+00  0.49756E+00
 TENSOR EIGENVALUES:
 A  0.44718E+00  B  0.80452E+00  C  0.44854E+00
 PRINCIPAL AXES:
         X             Y             Z
 A  0.94047E+00  0.12961E+00  0.31420E+00
 B -0.38053E-02  0.92839E+00 -0.37158E+00
 C -0.33986E+00  0.34826E+00  0.87362E+00
 BONDING WANNIER FUNCTION BETWEEN ATOMS:
 A:  11 F (  0  0  0) X -0.397391E+01 Y -0.431780E+00 Z -0.491041E+01 (AU)
 B:   4 ZN(  0  0 -1) X -0.397391E+01 Y  0.251798E+01 Z -0.723645E+01 (AU)
 DISTANCE OF THE CENTROID FROM THE ATOMS A,B AND FROM THE A-B BOND:
  0.58442E+00  0.32189E+01  0.21193E+00
 POLARISATION FRACTION (0: COVALENT; 1: VERY IONIC)  0.71003E+00
 ATOMIC POPULATION DATA:
 11 F (  0  0  0)  0.9379   4 ZN(  0  0 -1)  0.0550
 A.O. POPULATIONS OF ATOM   11(  0  0  0):
   0.0015  -0.0077   0.0667   0.1181   0.0714   0.0000   0.2063   0.0143
   0.0000   0.2019   0.0141   0.0000   0.2335   0.0177  -0.0000   0.0000
   0.0000   0.0000   0.0000
 A.O. POPULATIONS OF ATOM    4(  0  0 -1):
  -0.0000   0.0001   0.0001  -0.0019   0.0044   0.0207   0.0000   0.0133
   0.0160  -0.0000   0.0000   0.0000   0.0000   0.0002   0.0001   0.0000
   0.0002   0.0000   0.0000   0.0000   0.0008   0.0002   0.0000  -0.0000
   0.0000  -0.0001  -0.0000  -0.0000   0.0001   0.0000   0.0009   0.0002
   0.0000
~~~~~~~~~~~~~~~~~~~~~~~~~~~~~~~~~~~~~~~~~~~~~~~~~~~~~~~~~~~~~~~~~~~~~~~~~~~~~~~~
 WANNIER NUMBER   74 ATOMIC EXTENT  1.0332
 CENTROID'S COORDINATES R0:   -0.35185E+01   -0.52866E+01   -0.45010E+01
 EXPECTATION VALUE OF (R-R0)**2:  0.16749E+01
 SECOND ORDER TENSOR IN CARTESIAN AXES:
         X             Y             Z
 X  0.68756E+00  0.49820E-01 -0.19341E+00
 Y  0.49820E-01  0.43210E+00 -0.44156E-01
 Z -0.19341E+00 -0.44156E-01  0.55528E+00
 TENSOR EIGENVALUES:
 A  0.83666E+00  B  0.42632E+00  C  0.41196E+00
 PRINCIPAL AXES:
         X             Y             Z
 A  0.80126E+00  0.16155E+00 -0.57609E+00
 B -0.45205E+00  0.79423E+00 -0.40602E+00
 C  0.39195E+00  0.58575E+00  0.70941E+00
 NON BONDING WANNIER FUNCTION
 DISTANCE CENTROID-ATOM    5(  0  0  0) :   0.55610E+00
 ATOMIC POPULATION DATA:
  5 F (  0  0  0)  0.9837   2 BA(  0  0 -1)  0.0116
 A.O. POPULATIONS OF ATOM    5(  0  0  0):
   0.0013  -0.0080   0.0698   0.1072   0.0868   0.1617   0.0037   0.0757
   0.1540   0.0032   0.0717   0.1727   0.0035   0.0804   0.0000   0.0000
   0.0000  -0.0000   0.0000
 A.O. POPULATIONS OF ATOM    2(  0  0 -1):
  -0.0000  -0.0014   0.0055  -0.0008  -0.0000  -0.0004  -0.0004  -0.0001
  -0.0002   0.0000   0.0004   0.0001   0.0001   0.0001   0.0000   0.0047
   0.0008   0.0017   0.0015
~~~~~~~~~~~~~~~~~~~~~~~~~~~~~~~~~~~~~~~~~~~~~~~~~~~~~~~~~~~~~~~~~~~~~~~~~~~~~~~~
 WANNIER NUMBER   75 ATOMIC EXTENT  1.0330
 CENTROID'S COORDINATES R0:   -0.39753E+01    0.58563E+01    0.16005E+01
 EXPECTATION VALUE OF (R-R0)**2:  0.16621E+01
 SECOND ORDER TENSOR IN CARTESIAN AXES:
         X             Y             Z
 X  0.42819E+00 -0.25671E-03 -0.24263E-03
 Y -0.25671E-03  0.73768E+00  0.16890E+00
 Z -0.24263E-03  0.16890E+00  0.49621E+00
 TENSOR EIGENVALUES:
 A  0.42819E+00  B  0.82456E+00  C  0.40933E+00
 PRINCIPAL AXES:
         X             Y             Z
 A  0.99999E+00  0.31457E-02 -0.42442E-02
 B -0.85592E-03  0.88925E+00  0.45742E+00
 C  0.52130E-02 -0.45741E+00  0.88924E+00
 NON BONDING WANNIER FUNCTION
 DISTANCE CENTROID-ATOM    6(  0  0  0) :   0.54994E+00
 ATOMIC POPULATION DATA:
  6 F (  0  0  0)  0.9838   2 BA(  0  1  0)  0.0102
 A.O. POPULATIONS OF ATOM    6(  0  0  0):
   0.0014  -0.0085   0.0734   0.1189   0.0838   0.0000   0.1910   0.0472
   0.0000   0.1810   0.0440   0.0000   0.2024   0.0492   0.0000   0.0000
   0.0000   0.0000   0.0000
 A.O. POPULATIONS OF ATOM    2(  0  1  0):
  -0.0000  -0.0011   0.0048   0.0000  -0.0003  -0.0003  -0.0000  -0.0003
  -0.0001   0.0000   0.0000   0.0003   0.0002   0.0000   0.0000   0.0000
   0.0042   0.0028   0.0000
~~~~~~~~~~~~~~~~~~~~~~~~~~~~~~~~~~~~~~~~~~~~~~~~~~~~~~~~~~~~~~~~~~~~~~~~~~~~~~~~
 WANNIER NUMBER   76 ATOMIC EXTENT  0.9981
 CENTROID'S COORDINATES R0:   -0.43640E+01   -0.27476E+01   -0.18002E+01
 EXPECTATION VALUE OF (R-R0)**2:  0.64731E+00
 SECOND ORDER TENSOR IN CARTESIAN AXES:
         X             Y             Z
 X  0.27606E+00  0.73444E-01  0.35404E-01
 Y  0.73444E-01  0.19735E+00  0.60636E-02
 Z  0.35404E-01  0.60636E-02  0.17391E+00
 TENSOR EIGENVALUES:
 A  0.32738E+00  B  0.14565E+00  C  0.17428E+00
 PRINCIPAL AXES:
         X             Y             Z
 A  0.84614E+00  0.48790E+00  0.21447E+00
 B -0.52317E+00  0.68362E+00  0.50887E+00
 C  0.10166E+00 -0.54278E+00  0.83370E+00
 NON BONDING WANNIER FUNCTION
 DISTANCE CENTROID-ATOM    3(  0  0  0) :   0.46476E+00
 ATOMIC POPULATION DATA:
  3 ZN(  0  0  0)  1.0009
 A.O. POPULATIONS OF ATOM    3(  0  0  0):
  -0.0000  -0.0036   0.0574   0.0407   0.0014   0.0013   0.0009   0.0004
   0.0000  -0.0063  -0.0022  -0.0005   0.1737   0.0602   0.0132   0.0436
   0.0153   0.0032   0.0758   0.0246   0.0315   0.0534   0.1448   0.0451
   0.0148   0.0186   0.0317   0.0870   0.0167   0.0059   0.0066   0.0113
   0.0345
~~~~~~~~~~~~~~~~~~~~~~~~~~~~~~~~~~~~~~~~~~~~~~~~~~~~~~~~~~~~~~~~~~~~~~~~~~~~~~~~

 ATOMIC DELOCALISATION INDEX (BEFORE BOYS)     1.026170092    
 NORM        75.9999997568   (ERR PER WF    0.32E-08)
 DIPOLE MOMENT(AU)  0.31791265E+02  0.33933446E-06  0.17867913E+02
 TTTTTTTTTTTTTTTTTTTTTTTTTTTTTT WRPOP       TELAPSE      199.88 TCPU      199.87
 ------------------------------------------------------------------------------------
 TTTTTTTTTTTTTTTTTTTTTTTTTTTTTT SYMMEND2    TELAPSE      199.89 TCPU      199.88
 TTTTTTTTTTTTTTTTTTTTTTTTTTTTTT LOCALI      TELAPSE      199.89 TCPU      199.89
 ENDPROP   
 TTTTTTTTTTTTTTTTTTTTTTTTTTTTTT END         TELAPSE      199.89 TCPU      199.89
 EEEEEEEEEE TERMINATION  DATE 24 01 2025 TIME 17:07:06.2
------------------------------------------------------
properties finished normally
------------------------------------------------------
Localized Wannier Functions fort.80 saved as /Data/Sachs/projekte/ferroelectric_fluorides/calculations/BaZnF4_oS24_SG63_PBE0_tzvp_wannier/2.wannier
File fort.37 saved as /Data/Sachs/projekte/ferroelectric_fluorides/calculations/BaZnF4_oS24_SG63_PBE0_tzvp_wannier/2.locali
Date: 2025-01-24 17:07:06