Date: 2025-01-24 17:07:06
Running on: AGKraus-Super-Server
Temporary directory: /scratch/sachs//CRY_3585451
Executable: /Data/Software/crystal/crystal23/bin/Linux-ifort_i64/v1.0.1_openmpi//properties
Output: /Data/Sachs/projekte/ferroelectric_fluorides/calculations/BaZnF4_oS24_SG63_PBE0_tzvp_wannier/3.prop.out
Properties input data 3.d3
NEWK
0 8
8 8 5
1 0
LOCALI
END
END
END
Creating temporary directory /scratch/sachs//CRY_3585451 on node AGKraus-Super-Server
SCF wavefunction 3.w is available as /scratch/sachs//CRY_3585451/fort.9

         
 *******************************************************************************
 *                                                                             *
 *                               CRYSTAL23                                     *
 *                      public : 1.0.1 - October 2022                          *
 *                       HTTP://WWW.CRYSTAL.UNITO.IT                           *
 *                                                                             *
 *                              MAIN AUTHORS                                   *
 *                                                                             *
 *  R. DOVESI(1,11), V.R. SAUNDERS(2), C. ROETTI(1,11), R. ORLANDO(1,11),      *
 *  C.M. ZICOVICH-WILSON(1,3), F. PASCALE(4), B. CIVALLERI(1,11),              *
 *  K. DOLL(5), N.M. HARRISON(6), I.J. BUSH(7), Ph. D'ARCO(8),                 *
 *  M. LLUNELL(9), M. CAUSA'(10), Y. NOEL(8), L. MASCHIO(1,11), A. ERBA(1,11)  *
 *  M. RE'RAT(14), S. CASASSA(1,11), B.G. SEARLE(2), J.K. DESMARAIS(1)         *
 *                                                                             *
 *        CONTRIBUTIONS TO THE CODE HAVE ALSO BEEN GIVEN BY                    *
 *                                                                             *
 *  M. FERRABONE(1,11), M. DE LA PIERRE(1,11), M. FERRERO(1,11),               *
 *  J. BAIMA(1,11), E. ALBANESE(1,11), M.F. PEINTINGER(12), R. BAST(13),       *
 *  B. KIRTMAN(15), V. LACIVITA(1,11), R. DEMICHELIS(1,16)                     *
 *  G. BRANDEBURG(17), S. SALUSTRO(1,11), G. SANSONE(1,11)                     *
 *  M.T. RUGGIERO(18), L.E. DAGA(1), L. DONA'(1), A. COSSARD(1)                *
 *                                                                             *
 * (1) THEORETICAL CHEMISTRY GROUP - UNIVERSITA' DI TORINO - TORINO (ITALY)    *
 * (2) SCIENTIFIC COMPUTING DEPARTMENT - STFC DARESBURY (UK)                   *
 * (3) UNIVERSIDAD AUTONOMA DEL ESTADO DE MORELOS - CUERNAVACA (MEXICO)        *
 * (4) UNIVERSITE' DE LORRAINE - NANCY (FRANCE)                                *
 * (5) UNIVERSITAET STUTTGART- STUTTGART (GERMANY)                             *
 * (6) IMPERIAL COLLEGE - LONDON (UK)                                          *
 * (7) SCIENTIFIC COMPUTING DEPARTMENT - STFC RAL (UK)                         *
 * (8) UPMC - SORBONNE UNIVERSITES - PARIS (FRANCE)                            *
 * (9) UNIVERSIDAD DE BARCELONA - BARCELONA (SPAIN)                            *
 *(10) UNIVERSITA' DI NAPOLI "FEDERICO II" - NAPOLI (ITALY)                    *
 *(11) NIS - NANOSTRUCTURED INTERFACES AND SURFACES - TORINO (ITALY)           *
 *(12) MPI FUER CHEMISCHE ENERGIEKONVERSION - MUELHEIM AN DER RUHR (GERMANY)   *
 *(13) UNIVERSITY OF TROMSO - TROMSO (NORWAY)                                  *
 *(14) UNIVERSITE' DE PAU ET DES PAYS DE L'ADOUR - PAU (FRANCE)                *
 *(15) UNIVERSITY OF CALIFORNIA SANTA BARBARA - SANTA BARBARA (USA)            *
 *(16) CURTIN UNIVERSITY - PERTH (AUSTRALIA)                                   *
 *(17) UNIVERSITY COLLEGE LONDON - LONDON (UK)                                 *
 *(18) UNIVERSITY OF VERMONT - BURLINGTON (USA)                                *
 *                                                                             *
 *******************************************************************************
 EEEEEEEEEE STARTING  DATE 24 01 2025 TIME 17:07:06.3
 INFORMATION **** SET_MPP **** PCRYSTAL CALCULATION

 *******************************************************************************
 Polarisation path Nr. 3.                                                        
 CRYSTAL - PROPERTIES - TYPE OF CALCULATION :  RESTRICTED CLOSED SHELL
 *******************************************************************************
 KOHN-SHAM HAMILTONIAN

 (EXCHANGE)[CORRELATION] FUNCTIONAL:(PERDEW-BURKE-ERNZERHOF)[PERDEW-BURKE-ERNZERHOF]


 HYBRID EXCHANGE - PERCENTAGE OF FOCK EXCHANGE    25.0000

 DIRECT LATTICE VECTOR COMPONENTS (ANGSTROM)
         2.10290    7.28597    0.00000
        -2.10290    7.28597    0.00000
         0.00000    0.00000    5.86498

 LATTICE PARAMETERS  (ANGSTROM AND DEGREES) - PRIMITIVE CELL
       A          B          C         ALPHA      BETA     GAMMA        VOLUME
    7.58337    7.58337    5.86498     90.0000   90.0000   32.1988     179.72270
 *******************************************************************************
 N. OF ATOMS PER CELL        12 COULOMB OVERLAP TOL          (T1) 10**   -8
 NUMBER OF SHELLS           100 COULOMB PENETRATION TOL      (T2) 10**   -8
 NUMBER OF AO               256 EXCHANGE OVERLAP TOL         (T3) 10**   -8
 N. OF ELECTRONS PER CELL   152 EXCHANGE PSEUDO OVP (F(G))   (T4) 10**   -8
 CORE ELECTRONS PER CELL     52 EXCHANGE PSEUDO OVP (P(G))   (T5) 10**  -16
 N. OF SYMMETRY OPERATORS     4 POLE ORDER IN MONO ZONE                   4
 CORE  PSEUDO POTENTIAL         TOL. ON PSEUDO              (TP) 10**- 6
 *******************************************************************************
   ATOM N.AT.  SHELL    X(A)      Y(A)      Z(A)      EXAD       N.ELECT.
 *******************************************************************************
    1  256 BA    6    -0.000     2.138    -0.778   2.732E-01       8.289
    2  256 BA    6     0.000    -2.138     2.154   2.732E-01       8.289
    3   30 ZN   12    -2.103    -1.298    -0.956   3.903E-01      28.861
    4   30 ZN   12    -2.103     1.298     1.976   3.903E-01      28.861
    5    9 F     8    -2.103    -2.873    -2.206   1.400E+00       9.737
    6    9 F     8    -2.103     2.873     0.727   1.400E+00       9.737
    7    9 F     8    -2.103    -2.520     0.605   1.400E+00       9.736
    8    9 F     8    -2.103     2.520    -2.328   1.400E+00       9.736
    9    9 F     8    -0.000     1.139     1.909   1.400E+00       9.696
   10    9 F     8     0.000    -1.139    -1.023   1.400E+00       9.696
   11    9 F     8    -2.103    -0.343    -2.775   1.400E+00       9.682
   12    9 F     8    -2.103     0.343     0.157   1.400E+00       9.682
 *******************************************************************************
 DE(K)                   0.000E+00  ENERGY LEVEL SHIFTING        0.00000
 TOTAL ENERGY -4.4084105245338E+03  CONVERGENCE ON ENER       -5.080E-09
 KIN. ENERGY   4.3659877699080E+03  VIR. COEFF.           1.01558177E+00
 N. OF SCF CYCLES               10  FERMI ENERGY              -0.250E+00
 WEIGHT OF F(I) IN F(I+1)      80
 SHRINK. FACT.(MONKH.)     8  8  5  SHRINKING FACTOR(GILAT NET)        8
 NUMBER OF K POINTS IN THE IBZ  63  CELL VOLUME (A.U.)       1212.828899
 *******************************************************************************

 GCALCO - MAX INDICES DIRECT LATTICE VECTOR    16    16    11
 NO.OF VECTORS CREATED 6999 STARS 1033 RMAX   126.66320 BOHR
 TTTTTTTTTTTTTTTTTTTTTTTTTTTTTT gordsh1     TELAPSE        0.05 TCPU        0.05

 MATRIX SIZE: P(G)  372564, F(G)   64788, P(G) IRR   59571, F(G) IRR   22342
 MAX G-VECTOR INDEX FOR 1- AND 2-ELECTRON INTEGRALS 101


 CAPPA:IS1  8;IS2  8;IS3  5; K PTS MONK NET  63; SYMMOPS:K SPACE   8;G SPACE   4


 CAPPA:IS1  8;IS2  8;IS3  5; K PTS MONK NET  63; SYMMOPS:K SPACE   8;G SPACE   4

 *******************************************************************************
 RESTART WITH NEW K POINTS NET
 *******************************************************************************
 POINTS IN THE IBZ                  63 POINTS(GILAT NET)                63
 SHRINK FACTORS(MONK.)         8  8  5 SHRINK FACTOR(GILAT)              8
 *******************************************************************************
 *** K POINTS COORDINATES (OBLIQUE COORDINATES IN UNITS OF IS =  8)
   1-R(  0  0  0)   2-C(  1  0  0)   3-C(  2  0  0)   4-C(  3  0  0)
   5-R(  4  0  0)   6-C(  1  1  0)   7-C(  2  1  0)   8-C(  3  1  0)
   9-C(  4  1  0)  10-C(  5  1  0)  11-C(  6  1  0)  12-C(  7  1  0)
  13-C(  2  2  0)  14-C(  3  2  0)  15-C(  4  2  0)  16-C(  5  2  0)
  17-C(  6  2  0)  18-C(  3  3  0)  19-C(  4  3  0)  20-C(  5  3  0)
  21-R(  4  4  0)  22-C(  0  0  1)  23-C(  1  0  1)  24-C(  2  0  1)
  25-C(  3  0  1)  26-C(  4  0  1)  27-C(  1  1  1)  28-C(  2  1  1)
  29-C(  3  1  1)  30-C(  4  1  1)  31-C(  5  1  1)  32-C(  6  1  1)
  33-C(  7  1  1)  34-C(  2  2  1)  35-C(  3  2  1)  36-C(  4  2  1)
  37-C(  5  2  1)  38-C(  6  2  1)  39-C(  3  3  1)  40-C(  4  3  1)
  41-C(  5  3  1)  42-C(  4  4  1)  43-C(  0  0  2)  44-C(  1  0  2)
  45-C(  2  0  2)  46-C(  3  0  2)  47-C(  4  0  2)  48-C(  1  1  2)
  49-C(  2  1  2)  50-C(  3  1  2)  51-C(  4  1  2)  52-C(  5  1  2)
  53-C(  6  1  2)  54-C(  7  1  2)  55-C(  2  2  2)  56-C(  3  2  2)
  57-C(  4  2  2)  58-C(  5  2  2)  59-C(  6  2  2)  60-C(  3  3  2)
  61-C(  4  3  2)  62-C(  5  3  2)  63-C(  4  4  2)

 FERMI ENERGY AND DENSITY MATRIX CALCULATION ON COMPUTED EIGENVECTORS
 DENSITY MATRIX AT SCF CYCLE ( 10+1)

 INSULATING STATE
 TOP OF VALENCE BANDS -    BAND     76; K   26; EIG -2.4952094E-01 AU
 TOP OF VALENCE BANDS -    BAND     76; K    1; EIG -2.5076332E-01 AU
 BOTTOM OF VIRTUAL BANDS - BAND     77; K    1; EIG  6.3404646E-02 AU
 INDIRECT ENERGY BAND GAP:   8.5151 eV

 CORE DENSITY MATRIX CALCULATION
 TTTTTTTTTTTTTTTTTTTTTTTTTTTTTT NEWK        TELAPSE        7.23 TCPU        7.23
 INSULATING STATE
 TOP OF VALENCE BANDS -    BAND     76; K   26; EIG -2.4952094E-01 AU
 TOP OF VALENCE BANDS -    BAND     76; K    1; EIG -2.5076332E-01 AU
 BOTTOM OF VIRTUAL BANDS - BAND     77; K    1; EIG  6.3404646E-02 AU
 INDIRECT ENERGY BAND GAP:   8.5151 eV

 LOCALISATION OF THE CRYSTALLINE ORBITALS
 ACCORDING TO A WANNIER-BOYS MIXED SCHEME

 LIST OF ACTIVE BANDS
      1     2     3     4     5     6     7     8     9    10    11    12    13
     14    15    16    17    18    19    20    21    22    23    24    25    26
     27    28    29    30    31    32    33    34    35    36    37    38    39
     40    41    42    43    44    45    46    47    48    49    50    51    52
     53    54    55    56    57    58    59    60    61    62    63    64    65
     66    67    68    69    70    71    72    73    74    75    76

 CONVERGENCE CRITERION: ABS(ADI(N) - ADI(N-1)) LT  0.1000E-04
 WHERE ADI IS THE ATOMIC DELOCALISATION INDEX AND N IS THE CYCLE NUMBER

 OMEGA IS THE SUM OF THE (X -X0)**2 EXPECTATION VALUES (MARZARI-VANDERBILT'S
 FUNCTIONAL)
 N OF CELLS IN THE MAXIMUM CYCLIC AND UNFOLDED CLUSTERS:  320  975
 N OF VERTICES IN THE UNFOLDED CLUSTER:  2
 TTTTTTTTTTTTTTTTTTTTTTTTTTTTTT SDKVDK      TELAPSE        7.71 TCPU        7.71

 *******************************************************************************
 CYCLE  1, DIPOLE MATRIX ELEMENTS EVALUATED WHEN WANNIER COEFF GT 10**-5
 AUTOMATIC INITIAL GUESS REQUESTED
 TTTTTTTTTTTTTTTTTTTTTTTTTTTTTT WAN0        TELAPSE        9.86 TCPU        9.86
 CLUSTER SIZE =  169 UNIT CELLS
 TTTTTTTTTTTTTTTTTTTTTTTTTTTTTT WANTOL      TELAPSE       10.29 TCPU       10.25
 TTTTTTTTTTTTTTTTTTTTTTTTTTTTTT BOYS1       TELAPSE       48.19 TCPU       48.15

 ATOMIC DELOCALISATION INDEX (BEFORE BOYS)     2.867431270    
 NORM        75.9999974082   (ERR PER WF    0.34E-07)
 BOYS LOCALISED FUNCTIONS AFTER   90 CYCLES (MAX = 500 TOL = 0.1E-07)

 SUM OF THE SQUARES OF THE DISTANCES BETWEEN CENTROIDS = 139790.    
 TTTTTTTTTTTTTTTTTTTTTTTTTTTTTT BOYS3       TELAPSE       48.25 TCPU       48.21
 OMEGA =   91.89435324          ABS(OMEGA(N)-OMEGA(N-1)) =   0.91894E+02
 TTTTTTTTTTTTTTTTTTTTTTTTTTTTTT BOYS1       TELAPSE       52.52 TCPU       52.48

 ATOMIC DELOCALISATION INDEX (AFTER  BOYS)     1.026476115    
 NORM        75.9999974082   (ERR PER WF    0.34E-07)
 TTTTTTTTTTTTTTTTTTTTTTTTTTTTTT WANTST      TELAPSE       52.52 TCPU       52.48

 *******************************************************************************
 CYCLE  2, DIPOLE MATRIX ELEMENTS EVALUATED WHEN WANNIER COEFF GT 10**-5
 TTTTTTTTTTTTTTTTTTTTTTTTTTTTTT WAN0        TELAPSE       54.54 TCPU       54.50
 CLUSTER SIZE =  169 UNIT CELLS
 TTTTTTTTTTTTTTTTTTTTTTTTTTTTTT WANTOL      TELAPSE       54.88 TCPU       54.84
 TTTTTTTTTTTTTTTTTTTTTTTTTTTTTT BOYS1       TELAPSE       92.43 TCPU       92.39

 ATOMIC DELOCALISATION INDEX (BEFORE BOYS)     1.025346765    
 NORM        75.9999997607   (ERR PER WF    0.31E-08)
 BOYS LOCALISED FUNCTIONS AFTER    9 CYCLES (MAX = 500 TOL = 0.1E-07)

 SUM OF THE SQUARES OF THE DISTANCES BETWEEN CENTROIDS = 139807.    
 TTTTTTTTTTTTTTTTTTTTTTTTTTTTTT BOYS3       TELAPSE       92.44 TCPU       92.39
 OMEGA =   89.82517091          ABS(OMEGA(N)-OMEGA(N-1)) =   0.20692E+01
 TTTTTTTTTTTTTTTTTTTTTTTTTTTTTT BOYS1       TELAPSE       96.62 TCPU       96.58

 ATOMIC DELOCALISATION INDEX (AFTER  BOYS)     1.025866153    
 NORM        75.9999997607   (ERR PER WF    0.31E-08)
 TTTTTTTTTTTTTTTTTTTTTTTTTTTTTT WANTST      TELAPSE       96.62 TCPU       96.58

 *******************************************************************************
 CYCLE  3, DIPOLE MATRIX ELEMENTS EVALUATED WHEN WANNIER COEFF GT 10**-5
 TTTTTTTTTTTTTTTTTTTTTTTTTTTTTT WAN0        TELAPSE       98.64 TCPU       98.59
 CLUSTER SIZE =  169 UNIT CELLS
 TTTTTTTTTTTTTTTTTTTTTTTTTTTTTT WANTOL      TELAPSE       98.98 TCPU       98.94
 TTTTTTTTTTTTTTTTTTTTTTTTTTTTTT BOYS1       TELAPSE      136.27 TCPU      136.23

 ATOMIC DELOCALISATION INDEX (BEFORE BOYS)     1.025345405    
 NORM        75.9999997572   (ERR PER WF    0.32E-08)
 BOYS LOCALISED FUNCTIONS AFTER    5 CYCLES (MAX = 500 TOL = 0.1E-07)

 SUM OF THE SQUARES OF THE DISTANCES BETWEEN CENTROIDS = 139807.    
 TTTTTTTTTTTTTTTTTTTTTTTTTTTTTT BOYS3       TELAPSE      136.27 TCPU      136.23
 OMEGA =   89.82507760          ABS(OMEGA(N)-OMEGA(N-1)) =   0.93310E-04
 TTTTTTTTTTTTTTTTTTTTTTTTTTTTTT BOYS1       TELAPSE      140.45 TCPU      140.40

 ATOMIC DELOCALISATION INDEX (AFTER  BOYS)     1.025866109    
 NORM        75.9999997572   (ERR PER WF    0.32E-08)
 TTTTTTTTTTTTTTTTTTTTTTTTTTTTTT WANTST      TELAPSE      140.45 TCPU      140.40

 *******************************************************************************
 FINAL RESULTS 

 WANNIER F LOCALIZATION - CONVERGENCE ACHIEVED     0.4368E-07
 TTTTTTTTTTTTTTTTTTTTTTTTTTTTTT BOYS1       TELAPSE      196.33 TCPU      196.28

 WANNIER ATOMIC POPULATIONS LARGER THAN   0.10E-01 ARE GIVEN
 DATA ARE AS FOLLOWS: ATOM, CELL INDICES AND ATOMIC POPULATION

~~~~~~~~~~~~~~~~~~~~~~~~~~~~~~~~~~~~~~~~~~~~~~~~~~~~~~~~~~~~~~~~~~~~~~~~~~~~~~~~
 WANNIER NUMBER    1 ATOMIC EXTENT  1.0000
 CENTROID'S COORDINATES R0:   -0.39739E+01   -0.24530E+01   -0.18068E+01
 EXPECTATION VALUE OF (R-R0)**2:  0.45784E-02
 SECOND ORDER TENSOR IN CARTESIAN AXES:
         X             Y             Z
 X  0.15252E-02 -0.22518E-06  0.46122E-06
 Y -0.22518E-06  0.15271E-02  0.38892E-06
 Z  0.46122E-06  0.38892E-06  0.15260E-02
 TENSOR EIGENVALUES:
 A  0.15249E-02  B  0.15273E-02  C  0.15262E-02
 PRINCIPAL AXES:
         X             Y             Z
 A  0.88032E+00  0.16926E+00 -0.44316E+00
 B -0.40849E-01  0.95776E+00  0.28467E+00
 C  0.47262E+00 -0.23249E+00  0.85004E+00
 NON BONDING WANNIER FUNCTION
 DISTANCE CENTROID-ATOM    3(  0  0  0) :   0.19935E-06
 ATOMIC POPULATION DATA:
  3 ZN(  0  0  0)  1.0000
 A.O. POPULATIONS OF ATOM    3(  0  0  0):
   1.0253  -0.0251  -0.0007   0.0005  -0.0001   0.0000   0.0000   0.0000
   0.0000   0.0000  -0.0000   0.0000   0.0000   0.0000   0.0000  -0.0000
   0.0000   0.0000   0.0000   0.0000   0.0000   0.0000   0.0000   0.0000
   0.0000   0.0000   0.0000   0.0000  -0.0000   0.0000   0.0000  -0.0000
   0.0000
~~~~~~~~~~~~~~~~~~~~~~~~~~~~~~~~~~~~~~~~~~~~~~~~~~~~~~~~~~~~~~~~~~~~~~~~~~~~~~~~
 WANNIER NUMBER    2 ATOMIC EXTENT  1.0000
 CENTROID'S COORDINATES R0:   -0.39739E+01    0.24530E+01    0.37348E+01
 EXPECTATION VALUE OF (R-R0)**2:  0.45789E-02
 SECOND ORDER TENSOR IN CARTESIAN AXES:
         X             Y             Z
 X  0.15259E-02  0.69564E-06  0.38279E-06
 Y  0.69564E-06  0.15266E-02  0.10117E-06
 Z  0.38279E-06  0.10117E-06  0.15264E-02
 TENSOR EIGENVALUES:
 A  0.15254E-02  B  0.15271E-02  C  0.15264E-02
 PRINCIPAL AXES:
         X             Y             Z
 A  0.84501E+00 -0.46949E+00 -0.25601E+00
 B  0.53473E+00  0.73745E+00  0.41259E+00
 C -0.49163E-02 -0.48554E+00  0.87420E+00
 NON BONDING WANNIER FUNCTION
 DISTANCE CENTROID-ATOM    4(  0  0  0) :   0.34927E-06
 ATOMIC POPULATION DATA:
  4 ZN(  0  0  0)  1.0000
 A.O. POPULATIONS OF ATOM    4(  0  0  0):
   1.0253  -0.0251  -0.0007   0.0005  -0.0001   0.0000   0.0000   0.0000
  -0.0000   0.0000  -0.0000   0.0000   0.0000   0.0000  -0.0000   0.0000
   0.0000   0.0000   0.0000   0.0000   0.0000   0.0000   0.0000   0.0000
   0.0000   0.0000  -0.0000   0.0000  -0.0000   0.0000  -0.0000  -0.0000
   0.0000
~~~~~~~~~~~~~~~~~~~~~~~~~~~~~~~~~~~~~~~~~~~~~~~~~~~~~~~~~~~~~~~~~~~~~~~~~~~~~~~~
 WANNIER NUMBER    3 ATOMIC EXTENT  0.9987
 CENTROID'S COORDINATES R0:   -0.42228E+01    0.23117E+01    0.41305E+01
 EXPECTATION VALUE OF (R-R0)**2:  0.59982E+00
 SECOND ORDER TENSOR IN CARTESIAN AXES:
         X             Y             Z
 X  0.19524E+00  0.60319E-02 -0.51765E-01
 Y  0.60319E-02  0.16661E+00 -0.37110E-01
 Z -0.51765E-01 -0.37110E-01  0.23797E+00
 TENSOR EIGENVALUES:
 A  0.17360E+00  B  0.14339E+00  C  0.28284E+00
 PRINCIPAL AXES:
         X             Y             Z
 A  0.74396E+00 -0.62426E+00  0.23839E+00
 B  0.44109E+00  0.72675E+00  0.52657E+00
 C -0.50196E+00 -0.28659E+00  0.81603E+00
 NON BONDING WANNIER FUNCTION
 DISTANCE CENTROID-ATOM    4(  0  0  0) :   0.48831E+00
 ATOMIC POPULATION DATA:
  4 ZN(  0  0  0)  1.0006
 A.O. POPULATIONS OF ATOM    4(  0  0  0):
  -0.0001  -0.0043   0.0712   0.0502   0.0014  -0.0008   0.0000   0.0000
   0.0008  -0.0026  -0.0008  -0.0069   0.0723   0.0219   0.1910   0.0180
   0.0054   0.0478   0.0739   0.1460   0.0316   0.0033   0.0367   0.0444
   0.0877   0.0189   0.0020   0.0220   0.0175   0.0350   0.0073   0.0009
   0.0087
~~~~~~~~~~~~~~~~~~~~~~~~~~~~~~~~~~~~~~~~~~~~~~~~~~~~~~~~~~~~~~~~~~~~~~~~~~~~~~~~
 WANNIER NUMBER    4 ATOMIC EXTENT  0.9931
 CENTROID'S COORDINATES R0:   -0.39682E+01   -0.20275E+01   -0.15632E+01
 EXPECTATION VALUE OF (R-R0)**2:  0.57174E+00
 SECOND ORDER TENSOR IN CARTESIAN AXES:
         X             Y             Z
 X  0.14055E+00 -0.42793E-02  0.91638E-02
 Y -0.42793E-02  0.24212E+00  0.49832E-01
 Z  0.91638E-02  0.49832E-01  0.18908E+00
 TENSOR EIGENVALUES:
 A  0.13614E+00  B  0.27205E+00  C  0.16355E+00
 PRINCIPAL AXES:
         X             Y             Z
 A  0.91624E+00  0.20018E+00 -0.34704E+00
 B  0.80376E-02  0.85686E+00  0.51548E+00
 C  0.40055E+00 -0.47509E+00  0.78348E+00
 NON BONDING WANNIER FUNCTION
 DISTANCE CENTROID-ATOM    3(  0  0  0) :   0.49034E+00
 ATOMIC POPULATION DATA:
  3 ZN(  0  0  0)  1.0034
 A.O. POPULATIONS OF ATOM    3(  0  0  0):
  -0.0001  -0.0044   0.0726   0.0511   0.0013  -0.0011   0.0000   0.0001
   0.0002   0.0000  -0.0078  -0.0027   0.0000   0.2160   0.0726   0.0000
   0.0536   0.0183   0.0101   0.0018   0.1807   0.1018   0.0015   0.0060
   0.0011   0.1065   0.0605   0.0009   0.0023   0.0004   0.0378   0.0222
   0.0004
~~~~~~~~~~~~~~~~~~~~~~~~~~~~~~~~~~~~~~~~~~~~~~~~~~~~~~~~~~~~~~~~~~~~~~~~~~~~~~~~
 WANNIER NUMBER    5 ATOMIC EXTENT  1.0000
 CENTROID'S COORDINATES R0:   -0.40345E+01    0.24842E+01    0.36587E+01
 EXPECTATION VALUE OF (R-R0)**2:  0.41894E-01
 SECOND ORDER TENSOR IN CARTESIAN AXES:
         X             Y             Z
 X  0.14003E-01 -0.80191E-03  0.19081E-02
 Y -0.80191E-03  0.12939E-01 -0.99734E-03
 Z  0.19081E-02 -0.99734E-03  0.14952E-01
 TENSOR EIGENVALUES:
 A  0.12534E-01  B  0.12499E-01  C  0.16861E-01
 PRINCIPAL AXES:
         X             Y             Z
 A  0.31502E+00 -0.76373E+00 -0.56346E+00
 B  0.74622E+00  0.56616E+00 -0.35018E+00
 C  0.58645E+00 -0.31014E+00  0.74826E+00
 NON BONDING WANNIER FUNCTION
 DISTANCE CENTROID-ATOM    4(  0  0  0) :   0.10214E+00
 ATOMIC POPULATION DATA:
  4 ZN(  0  0  0)  1.0000
 A.O. POPULATIONS OF ATOM    4(  0  0  0):
  -0.0063   0.2656  -0.0035  -0.0062   0.0003  -0.0001  -0.0000  -0.0000
  -0.0000   0.2712   0.0720   0.4276  -0.0073  -0.0020  -0.0116   0.0000
   0.0000   0.0001   0.0000   0.0000   0.0000   0.0000   0.0000   0.0000
   0.0000   0.0000   0.0000   0.0000   0.0000   0.0000   0.0000   0.0000
  -0.0000
~~~~~~~~~~~~~~~~~~~~~~~~~~~~~~~~~~~~~~~~~~~~~~~~~~~~~~~~~~~~~~~~~~~~~~~~~~~~~~~~
 WANNIER NUMBER    6 ATOMIC EXTENT  1.0000
 CENTROID'S COORDINATES R0:   -0.40151E+01   -0.25203E+01   -0.17419E+01
 EXPECTATION VALUE OF (R-R0)**2:  0.41846E-01
 SECOND ORDER TENSOR IN CARTESIAN AXES:
         X             Y             Z
 X  0.13155E-01  0.11410E-02 -0.11159E-02
 Y  0.11410E-02  0.14373E-01 -0.18645E-02
 Z -0.11159E-02 -0.18645E-02  0.14319E-01
 TENSOR EIGENVALUES:
 A  0.12470E-01  B  0.16892E-01  C  0.12484E-01
 PRINCIPAL AXES:
         X             Y             Z
 A  0.81190E+00 -0.57659E+00 -0.91448E-01
 B  0.39274E+00  0.65535E+00 -0.64519E+00
 C  0.43194E+00  0.48791E+00  0.75853E+00
 NON BONDING WANNIER FUNCTION
 DISTANCE CENTROID-ATOM    3(  0  0  0) :   0.10213E+00
 ATOMIC POPULATION DATA:
  3 ZN(  0  0  0)  1.0000
 A.O. POPULATIONS OF ATOM    3(  0  0  0):
  -0.0063   0.2659  -0.0035  -0.0063   0.0004  -0.0001  -0.0000  -0.0000
  -0.0000   0.1252   0.3347   0.3108  -0.0033  -0.0090  -0.0084   0.0000
   0.0000   0.0001   0.0000   0.0000   0.0000   0.0000   0.0000   0.0000
   0.0000   0.0000   0.0000   0.0000   0.0000   0.0000   0.0000   0.0000
   0.0000
~~~~~~~~~~~~~~~~~~~~~~~~~~~~~~~~~~~~~~~~~~~~~~~~~~~~~~~~~~~~~~~~~~~~~~~~~~~~~~~~
 WANNIER NUMBER    7 ATOMIC EXTENT  0.9963
 CENTROID'S COORDINATES R0:   -0.37846E+01    0.28240E+01    0.39900E+01
 EXPECTATION VALUE OF (R-R0)**2:  0.58531E+00
 SECOND ORDER TENSOR IN CARTESIAN AXES:
         X             Y             Z
 X  0.17645E+00  0.30184E-01  0.31708E-01
 Y  0.30184E-01  0.22769E+00  0.53678E-01
 Z  0.31708E-01  0.53678E-01  0.18117E+00
 TENSOR EIGENVALUES:
 A  0.16370E+00  B  0.28052E+00  C  0.14109E+00
 PRINCIPAL AXES:
         X             Y             Z
 A  0.81717E+00 -0.54437E+00  0.18945E+00
 B  0.38125E+00  0.75699E+00  0.53067E+00
 C -0.43230E+00 -0.36142E+00  0.82613E+00
 NON BONDING WANNIER FUNCTION
 DISTANCE CENTROID-ATOM    4(  0  0  0) :   0.48845E+00
 ATOMIC POPULATION DATA:
  4 ZN(  0  0  0)  1.0019
 A.O. POPULATIONS OF ATOM    4(  0  0  0):
  -0.0001  -0.0043   0.0713   0.0504   0.0012  -0.0001   0.0003  -0.0000
  -0.0001  -0.0015  -0.0059  -0.0030   0.0403   0.1651   0.0844   0.0101
   0.0409   0.0208   0.0002   0.0203   0.1301   0.0399   0.1009   0.0001
   0.0122   0.0771   0.0239   0.0607   0.0001   0.0048   0.0286   0.0091
   0.0240
~~~~~~~~~~~~~~~~~~~~~~~~~~~~~~~~~~~~~~~~~~~~~~~~~~~~~~~~~~~~~~~~~~~~~~~~~~~~~~~~
 WANNIER NUMBER    8 ATOMIC EXTENT  1.0000
 CENTROID'S COORDINATES R0:   -0.40192E+01   -0.23622E+01   -0.17949E+01
 EXPECTATION VALUE OF (R-R0)**2:  0.41851E-01
 SECOND ORDER TENSOR IN CARTESIAN AXES:
         X             Y             Z
 X  0.13321E-01 -0.17211E-02 -0.21815E-03
 Y -0.17211E-02  0.15971E-01  0.45842E-03
 Z -0.21815E-03  0.45842E-03  0.12559E-01
 TENSOR EIGENVALUES:
 A  0.12472E-01  B  0.16877E-01  C  0.12501E-01
 PRINCIPAL AXES:
         X             Y             Z
 A  0.85830E+00  0.45372E+00 -0.23970E+00
 B -0.43846E+00  0.89113E+00  0.11675E+00
 C  0.26658E+00  0.48938E-02  0.96380E+00
 NON BONDING WANNIER FUNCTION
 DISTANCE CENTROID-ATOM    3(  0  0  0) :   0.10211E+00
 ATOMIC POPULATION DATA:
  3 ZN(  0  0  0)  1.0000
 A.O. POPULATIONS OF ATOM    3(  0  0  0):
  -0.0063   0.2656  -0.0035  -0.0063   0.0003  -0.0001  -0.0000  -0.0000
  -0.0000   0.1514   0.6090   0.0104  -0.0041  -0.0165  -0.0003   0.0000
   0.0001   0.0000   0.0000   0.0000   0.0000   0.0000   0.0000   0.0000
   0.0000   0.0000   0.0000   0.0000   0.0000   0.0000   0.0000   0.0000
   0.0000
~~~~~~~~~~~~~~~~~~~~~~~~~~~~~~~~~~~~~~~~~~~~~~~~~~~~~~~~~~~~~~~~~~~~~~~~~~~~~~~~
 WANNIER NUMBER    9 ATOMIC EXTENT  1.0000
 CENTROID'S COORDINATES R0:   -0.38740E+01   -0.24440E+01   -0.17876E+01
 EXPECTATION VALUE OF (R-R0)**2:  0.41795E-01
 SECOND ORDER TENSOR IN CARTESIAN AXES:
         X             Y             Z
 X  0.16659E-01  0.36111E-03  0.76932E-03
 Y  0.36111E-03  0.12487E-01  0.76320E-04
 Z  0.76932E-03  0.76320E-04  0.12649E-01
 TENSOR EIGENVALUES:
 A  0.16833E-01  B  0.12454E-01  C  0.12508E-01
 PRINCIPAL AXES:
         X             Y             Z
 A  0.97971E+00  0.84600E-01  0.18168E+00
 B -0.50122E-01  0.98116E+00 -0.18659E+00
 C -0.19405E+00  0.17370E+00  0.96549E+00
 NON BONDING WANNIER FUNCTION
 DISTANCE CENTROID-ATOM    3(  0  0  0) :   0.10216E+00
 ATOMIC POPULATION DATA:
  3 ZN(  0  0  0)  1.0000
 A.O. POPULATIONS OF ATOM    3(  0  0  0):
  -0.0063   0.2658  -0.0035  -0.0063   0.0004  -0.0001  -0.0000  -0.0000
  -0.0000   0.7374   0.0060   0.0271  -0.0198  -0.0002  -0.0007   0.0001
  -0.0000   0.0000   0.0000   0.0000   0.0000   0.0000   0.0000   0.0000
   0.0000   0.0000   0.0000   0.0000   0.0000   0.0000   0.0000   0.0000
   0.0000
~~~~~~~~~~~~~~~~~~~~~~~~~~~~~~~~~~~~~~~~~~~~~~~~~~~~~~~~~~~~~~~~~~~~~~~~~~~~~~~~
 WANNIER NUMBER   10 ATOMIC EXTENT  1.0000
 CENTROID'S COORDINATES R0:   -0.40163E+01    0.23724E+01    0.37812E+01
 EXPECTATION VALUE OF (R-R0)**2:  0.41793E-01
 SECOND ORDER TENSOR IN CARTESIAN AXES:
         X             Y             Z
 X  0.13213E-01  0.13762E-02 -0.79860E-03
 Y  0.13762E-02  0.15175E-01 -0.15581E-02
 Z -0.79860E-03 -0.15581E-02  0.13405E-01
 TENSOR EIGENVALUES:
 A  0.12505E-01  B  0.16790E-01  C  0.12498E-01
 PRINCIPAL AXES:
         X             Y             Z
 A  0.88669E+00 -0.21956E+00  0.40691E+00
 B  0.40640E+00  0.78979E+00 -0.45942E+00
 C -0.22051E+00  0.57273E+00  0.78953E+00
 NON BONDING WANNIER FUNCTION
 DISTANCE CENTROID-ATOM    4(  0  0  0) :   0.10218E+00
 ATOMIC POPULATION DATA:
  4 ZN(  0  0  0)  1.0000
 A.O. POPULATIONS OF ATOM    4(  0  0  0):
  -0.0063   0.2658  -0.0034  -0.0063   0.0003  -0.0001  -0.0000  -0.0000
  -0.0000   0.1322   0.4796   0.1587  -0.0035  -0.0129  -0.0043   0.0000
   0.0001   0.0000   0.0000   0.0000   0.0000   0.0000   0.0000   0.0000
   0.0000   0.0000   0.0000   0.0000   0.0000   0.0000   0.0000   0.0000
   0.0000
~~~~~~~~~~~~~~~~~~~~~~~~~~~~~~~~~~~~~~~~~~~~~~~~~~~~~~~~~~~~~~~~~~~~~~~~~~~~~~~~
 WANNIER NUMBER   11 ATOMIC EXTENT  0.9999
 CENTROID'S COORDINATES R0:   -0.39739E+01   -0.64791E+00   -0.52447E+01
 EXPECTATION VALUE OF (R-R0)**2:  0.45464E-01
 SECOND ORDER TENSOR IN CARTESIAN AXES:
         X             Y             Z
 X  0.15085E-01 -0.42692E-06  0.47722E-06
 Y -0.42692E-06  0.15197E-01 -0.65272E-04
 Z  0.47722E-06 -0.65272E-04  0.15182E-01
 TENSOR EIGENVALUES:
 A  0.15085E-01  B  0.15255E-01  C  0.15124E-01
 PRINCIPAL AXES:
         X             Y             Z
 A  0.99999E+00  0.15505E-02 -0.38715E-02
 B -0.37321E-02  0.74698E+00 -0.66484E+00
 C  0.18611E-02  0.66485E+00  0.74698E+00
 NON BONDING WANNIER FUNCTION
 DISTANCE CENTROID-ATOM   11(  0  0  0) :   0.41150E-04
 ATOMIC POPULATION DATA:
 11 F (  0  0  0)  1.0000
 A.O. POPULATIONS OF ATOM   11(  0  0  0):
   0.3815   0.6289   0.0029  -0.0118  -0.0015   0.0000   0.0000   0.0000
   0.0000   0.0000   0.0000   0.0000   0.0000   0.0000   0.0000   0.0000
   0.0000   0.0000   0.0000
~~~~~~~~~~~~~~~~~~~~~~~~~~~~~~~~~~~~~~~~~~~~~~~~~~~~~~~~~~~~~~~~~~~~~~~~~~~~~~~~
 WANNIER NUMBER   12 ATOMIC EXTENT  0.9999
 CENTROID'S COORDINATES R0:   -0.39739E+01    0.64791E+00    0.29694E+00
 EXPECTATION VALUE OF (R-R0)**2:  0.45463E-01
 SECOND ORDER TENSOR IN CARTESIAN AXES:
         X             Y             Z
 X  0.15084E-01 -0.91716E-06  0.63052E-06
 Y -0.91716E-06  0.15198E-01  0.67317E-04
 Z  0.63052E-06  0.67317E-04  0.15182E-01
 TENSOR EIGENVALUES:
 A  0.15083E-01  B  0.15258E-01  C  0.15122E-01
 PRINCIPAL AXES:
         X             Y             Z
 A  0.99961E+00  0.19745E-01 -0.19879E-01
 B -0.15239E-02  0.74677E+00  0.66508E+00
 C  0.27977E-01 -0.66479E+00  0.74651E+00
 NON BONDING WANNIER FUNCTION
 DISTANCE CENTROID-ATOM   12(  0  0  0) :   0.40470E-04
 ATOMIC POPULATION DATA:
 12 F (  0  0  0)  1.0000
 A.O. POPULATIONS OF ATOM   12(  0  0  0):
   0.3815   0.6289   0.0029  -0.0118  -0.0015   0.0000   0.0000   0.0000
   0.0000   0.0000   0.0000   0.0000   0.0000   0.0000   0.0000   0.0000
   0.0000   0.0000   0.0000
~~~~~~~~~~~~~~~~~~~~~~~~~~~~~~~~~~~~~~~~~~~~~~~~~~~~~~~~~~~~~~~~~~~~~~~~~~~~~~~~
 WANNIER NUMBER   13 ATOMIC EXTENT  1.0000
 CENTROID'S COORDINATES R0:   -0.39739E+01   -0.47627E+01    0.11429E+01
 EXPECTATION VALUE OF (R-R0)**2:  0.45415E-01
 SECOND ORDER TENSOR IN CARTESIAN AXES:
         X             Y             Z
 X  0.15132E-01  0.13809E-05  0.22297E-05
 Y  0.13809E-05  0.15113E-01 -0.23329E-04
 Z  0.22297E-05 -0.23329E-04  0.15170E-01
 TENSOR EIGENVALUES:
 A  0.15132E-01  B  0.15105E-01  C  0.15178E-01
 PRINCIPAL AXES:
         X             Y             Z
 A  0.99651E+00  0.83131E-01 -0.74364E-02
 B -0.75684E-01  0.93760E+00  0.33937E+00
 C  0.35185E-01 -0.33763E+00  0.94062E+00
 NON BONDING WANNIER FUNCTION
 DISTANCE CENTROID-ATOM    7(  0  0  0) :   0.88050E-04
 ATOMIC POPULATION DATA:
  7 F (  0  0  0)  1.0000
 A.O. POPULATIONS OF ATOM    7(  0  0  0):
   0.3815   0.6290   0.0028  -0.0117  -0.0016  -0.0000   0.0000   0.0000
   0.0000   0.0000   0.0000  -0.0000   0.0000   0.0000   0.0000   0.0000
   0.0000  -0.0000   0.0000
~~~~~~~~~~~~~~~~~~~~~~~~~~~~~~~~~~~~~~~~~~~~~~~~~~~~~~~~~~~~~~~~~~~~~~~~~~~~~~~~
 WANNIER NUMBER   14 ATOMIC EXTENT  1.0000
 CENTROID'S COORDINATES R0:   -0.39739E+01    0.47627E+01   -0.43987E+01
 EXPECTATION VALUE OF (R-R0)**2:  0.45412E-01
 SECOND ORDER TENSOR IN CARTESIAN AXES:
         X             Y             Z
 X  0.15133E-01 -0.96648E-06  0.26636E-05
 Y -0.96648E-06  0.15113E-01  0.21365E-04
 Z  0.26636E-05  0.21365E-04  0.15166E-01
 TENSOR EIGENVALUES:
 A  0.15133E-01  B  0.15105E-01  C  0.15174E-01
 PRINCIPAL AXES:
         X             Y             Z
 A  0.99648E+00 -0.78815E-01 -0.28560E-01
 B  0.64984E-01  0.94147E+00 -0.33077E+00
 C  0.52959E-01  0.32775E+00  0.94328E+00
 NON BONDING WANNIER FUNCTION
 DISTANCE CENTROID-ATOM    8(  0  0  0) :   0.88942E-04
 ATOMIC POPULATION DATA:
  8 F (  0  0  0)  1.0000
 A.O. POPULATIONS OF ATOM    8(  0  0  0):
   0.3815   0.6290   0.0028  -0.0117  -0.0016   0.0000   0.0000   0.0000
   0.0000   0.0000   0.0000   0.0000   0.0000   0.0000   0.0000   0.0000
   0.0000  -0.0000   0.0000
~~~~~~~~~~~~~~~~~~~~~~~~~~~~~~~~~~~~~~~~~~~~~~~~~~~~~~~~~~~~~~~~~~~~~~~~~~~~~~~~
 WANNIER NUMBER   15 ATOMIC EXTENT  1.0000
 CENTROID'S COORDINATES R0:   -0.21230E-06   -0.21515E+01   -0.19341E+01
 EXPECTATION VALUE OF (R-R0)**2:  0.45434E-01
 SECOND ORDER TENSOR IN CARTESIAN AXES:
         X             Y             Z
 X  0.15259E-01 -0.13287E-06  0.27999E-06
 Y -0.13287E-06  0.15072E-01  0.33521E-05
 Z  0.27999E-06  0.33521E-05  0.15103E-01
 TENSOR EIGENVALUES:
 A  0.15259E-01  B  0.15072E-01  C  0.15103E-01
 PRINCIPAL AXES:
         X             Y             Z
 A  0.10000E+01 -0.67979E-03  0.17780E-02
 B  0.86784E-03  0.99415E+00 -0.10801E+00
 C -0.16941E-02  0.10801E+00  0.99415E+00
 NON BONDING WANNIER FUNCTION
 DISTANCE CENTROID-ATOM   10(  0  0  0) :   0.39016E-04
 ATOMIC POPULATION DATA:
 10 F (  0  0  0)  1.0000
 A.O. POPULATIONS OF ATOM   10(  0  0  0):
   0.3815   0.6290   0.0028  -0.0117  -0.0016   0.0000   0.0000   0.0000
   0.0000   0.0000   0.0000   0.0000   0.0000   0.0000   0.0000  -0.0000
   0.0000   0.0000  -0.0000
~~~~~~~~~~~~~~~~~~~~~~~~~~~~~~~~~~~~~~~~~~~~~~~~~~~~~~~~~~~~~~~~~~~~~~~~~~~~~~~~
 WANNIER NUMBER   16 ATOMIC EXTENT  1.0000
 CENTROID'S COORDINATES R0:   -0.12311E-05    0.21515E+01    0.36075E+01
 EXPECTATION VALUE OF (R-R0)**2:  0.45432E-01
 SECOND ORDER TENSOR IN CARTESIAN AXES:
         X             Y             Z
 X  0.15258E-01  0.55423E-06  0.21252E-05
 Y  0.55423E-06  0.15072E-01 -0.26056E-05
 Z  0.21252E-05 -0.26056E-05  0.15102E-01
 TENSOR EIGENVALUES:
 A  0.15258E-01  B  0.15072E-01  C  0.15102E-01
 PRINCIPAL AXES:
         X             Y             Z
 A  0.99990E+00  0.27814E-02  0.13506E-01
 B -0.39431E-02  0.99622E+00  0.86761E-01
 C -0.13214E-01 -0.86806E-01  0.99614E+00
 NON BONDING WANNIER FUNCTION
 DISTANCE CENTROID-ATOM    9(  0  0  0) :   0.38934E-04
 ATOMIC POPULATION DATA:
  9 F (  0  0  0)  1.0000
 A.O. POPULATIONS OF ATOM    9(  0  0  0):
   0.3815   0.6289   0.0028  -0.0117  -0.0016   0.0000   0.0000   0.0000
   0.0000   0.0000   0.0000   0.0000   0.0000   0.0000   0.0000   0.0000
   0.0000   0.0000   0.0000
~~~~~~~~~~~~~~~~~~~~~~~~~~~~~~~~~~~~~~~~~~~~~~~~~~~~~~~~~~~~~~~~~~~~~~~~~~~~~~~~
 WANNIER NUMBER   17 ATOMIC EXTENT  1.0000
 CENTROID'S COORDINATES R0:   -0.39739E+01   -0.54288E+01   -0.41679E+01
 EXPECTATION VALUE OF (R-R0)**2:  0.45398E-01
 SECOND ORDER TENSOR IN CARTESIAN AXES:
         X             Y             Z
 X  0.15112E-01  0.39306E-06  0.21757E-06
 Y  0.39306E-06  0.15151E-01 -0.20791E-05
 Z  0.21757E-06 -0.20791E-05  0.15135E-01
 TENSOR EIGENVALUES:
 A  0.15112E-01  B  0.15151E-01  C  0.15135E-01
 PRINCIPAL AXES:
         X             Y             Z
 A  0.99989E+00 -0.10647E-01 -0.10396E-01
 B  0.92336E-02  0.99178E+00 -0.12759E+00
 C  0.11669E-01  0.12748E+00  0.99177E+00
 NON BONDING WANNIER FUNCTION
 DISTANCE CENTROID-ATOM    5(  0  0  0) :   0.88043E-04
 ATOMIC POPULATION DATA:
  5 F (  0  0  0)  1.0000
 A.O. POPULATIONS OF ATOM    5(  0  0  0):
   0.3815   0.6290   0.0028  -0.0117  -0.0016   0.0000   0.0000   0.0000
   0.0000   0.0000   0.0000   0.0000   0.0000   0.0000   0.0000   0.0000
  -0.0000   0.0000  -0.0000
~~~~~~~~~~~~~~~~~~~~~~~~~~~~~~~~~~~~~~~~~~~~~~~~~~~~~~~~~~~~~~~~~~~~~~~~~~~~~~~~
 WANNIER NUMBER   18 ATOMIC EXTENT  1.0000
 CENTROID'S COORDINATES R0:   -0.39739E+01    0.54288E+01    0.13737E+01
 EXPECTATION VALUE OF (R-R0)**2:  0.45400E-01
 SECOND ORDER TENSOR IN CARTESIAN AXES:
         X             Y             Z
 X  0.15115E-01 -0.14045E-05 -0.12560E-05
 Y -0.14045E-05  0.15151E-01  0.34534E-05
 Z -0.12560E-05  0.34534E-05  0.15134E-01
 TENSOR EIGENVALUES:
 A  0.15115E-01  B  0.15152E-01  C  0.15134E-01
 PRINCIPAL AXES:
         X             Y             Z
 A  0.99781E+00  0.33203E-01  0.57249E-01
 B -0.44070E-01  0.97871E+00  0.20048E+00
 C -0.49373E-01 -0.20257E+00  0.97802E+00
 NON BONDING WANNIER FUNCTION
 DISTANCE CENTROID-ATOM    6(  0  0  0) :   0.88219E-04
 ATOMIC POPULATION DATA:
  6 F (  0  0  0)  1.0000
 A.O. POPULATIONS OF ATOM    6(  0  0  0):
   0.3815   0.6290   0.0028  -0.0117  -0.0016   0.0000   0.0000   0.0000
   0.0000   0.0000   0.0000   0.0000   0.0000   0.0000   0.0000   0.0000
  -0.0000   0.0000   0.0000
~~~~~~~~~~~~~~~~~~~~~~~~~~~~~~~~~~~~~~~~~~~~~~~~~~~~~~~~~~~~~~~~~~~~~~~~~~~~~~~~
 WANNIER NUMBER   19 ATOMIC EXTENT  1.0000
 CENTROID'S COORDINATES R0:   -0.39622E+01    0.25288E+01    0.38023E+01
 EXPECTATION VALUE OF (R-R0)**2:  0.41839E-01
 SECOND ORDER TENSOR IN CARTESIAN AXES:
         X             Y             Z
 X  0.12558E-01  0.34595E-03  0.34742E-03
 Y  0.34595E-03  0.14894E-01  0.21211E-02
 Z  0.34742E-03  0.21211E-02  0.14387E-01
 TENSOR EIGENVALUES:
 A  0.12473E-01  B  0.16833E-01  C  0.12533E-01
 PRINCIPAL AXES:
         X             Y             Z
 A  0.71669E+00  0.39882E+00 -0.57210E+00
 B  0.11374E+00  0.74252E+00  0.66010E+00
 C  0.68806E+00 -0.53815E+00  0.48679E+00
 NON BONDING WANNIER FUNCTION
 DISTANCE CENTROID-ATOM    4(  0  0  0) :   0.10215E+00
 ATOMIC POPULATION DATA:
  4 ZN(  0  0  0)  1.0000
 A.O. POPULATIONS OF ATOM    4(  0  0  0):
  -0.0063   0.2657  -0.0034  -0.0063   0.0004  -0.0001  -0.0000  -0.0000
  -0.0000   0.0102   0.4244   0.3361  -0.0003  -0.0114  -0.0090   0.0000
   0.0001   0.0000   0.0000   0.0000   0.0000   0.0000   0.0000   0.0000
   0.0000   0.0000   0.0000   0.0000   0.0000   0.0000   0.0000   0.0000
   0.0000
~~~~~~~~~~~~~~~~~~~~~~~~~~~~~~~~~~~~~~~~~~~~~~~~~~~~~~~~~~~~~~~~~~~~~~~~~~~~~~~~
 WANNIER NUMBER   20 ATOMIC EXTENT  0.9974
 CENTROID'S COORDINATES R0:   -0.37671E+01   -0.21349E+01   -0.21218E+01
 EXPECTATION VALUE OF (R-R0)**2:  0.58452E+00
 SECOND ORDER TENSOR IN CARTESIAN AXES:
         X             Y             Z
 X  0.17847E+00  0.24570E-01 -0.37933E-01
 Y  0.24570E-01  0.20698E+00 -0.57549E-01
 Z -0.37933E-01 -0.57549E-01  0.19907E+00
 TENSOR EIGENVALUES:
 A  0.16467E+00  B  0.27984E+00  C  0.14001E+00
 PRINCIPAL AXES:
         X             Y             Z
 A  0.80845E+00 -0.58265E+00 -0.83254E-01
 B  0.39973E+00  0.64736E+00 -0.64896E+00
 C  0.43201E+00  0.49137E+00  0.75626E+00
 NON BONDING WANNIER FUNCTION
 DISTANCE CENTROID-ATOM    3(  0  0  0) :   0.49314E+00
 ATOMIC POPULATION DATA:
  3 ZN(  0  0  0)  1.0013
 A.O. POPULATIONS OF ATOM    3(  0  0  0):
  -0.0000  -0.0044   0.0704   0.0498   0.0013   0.0002  -0.0000   0.0007
   0.0005  -0.0018  -0.0043  -0.0044   0.0485   0.1144   0.1207   0.0121
   0.0289   0.0304   0.0091   0.0447   0.1372   0.0133   0.0911   0.0053
   0.0269   0.0812   0.0080   0.0547   0.0018   0.0107   0.0295   0.0031
   0.0216
~~~~~~~~~~~~~~~~~~~~~~~~~~~~~~~~~~~~~~~~~~~~~~~~~~~~~~~~~~~~~~~~~~~~~~~~~~~~~~~~
 WANNIER NUMBER   21 ATOMIC EXTENT  0.9996
 CENTROID'S COORDINATES R0:   -0.42900E+01   -0.21627E+01   -0.19774E+01
 EXPECTATION VALUE OF (R-R0)**2:  0.64998E+00
 SECOND ORDER TENSOR IN CARTESIAN AXES:
         X             Y             Z
 X  0.24625E+00 -0.59501E-01  0.45296E-01
 Y -0.59501E-01  0.23617E+00 -0.41552E-01
 Z  0.45296E-01 -0.41552E-01  0.16755E+00
 TENSOR EIGENVALUES:
 A  0.32493E+00  B  0.18150E+00  C  0.14355E+00
 PRINCIPAL AXES:
         X             Y             Z
 A  0.68597E+00 -0.63015E+00  0.36381E+00
 B  0.67619E+00  0.73673E+00  0.11138E-02
 C -0.26873E+00  0.24524E+00  0.93147E+00
 NON BONDING WANNIER FUNCTION
 DISTANCE CENTROID-ATOM    3(  0  0  0) :   0.46184E+00
 ATOMIC POPULATION DATA:
  3 ZN(  0  0  0)  1.0002
 A.O. POPULATIONS OF ATOM    3(  0  0  0):
  -0.0000  -0.0036   0.0581   0.0412   0.0012   0.0007  -0.0002   0.0003
   0.0002  -0.0043  -0.0035  -0.0012   0.1176   0.0982   0.0337   0.0293
   0.0247   0.0085   0.0102   0.0462   0.0490   0.0020   0.2196   0.0062
   0.0277   0.0290   0.0012   0.1319   0.0025   0.0110   0.0107   0.0003
   0.0521
~~~~~~~~~~~~~~~~~~~~~~~~~~~~~~~~~~~~~~~~~~~~~~~~~~~~~~~~~~~~~~~~~~~~~~~~~~~~~~~~
 WANNIER NUMBER   22 ATOMIC EXTENT  0.9993
 CENTROID'S COORDINATES R0:   -0.43003E+01    0.27611E+01    0.38433E+01
 EXPECTATION VALUE OF (R-R0)**2:  0.65202E+00
 SECOND ORDER TENSOR IN CARTESIAN AXES:
         X             Y             Z
 X  0.25204E+00 -0.67433E-01 -0.31985E-01
 Y -0.67433E-01  0.24469E+00  0.24008E-01
 Z -0.31985E-01  0.24008E-01  0.15529E+00
 TENSOR EIGENVALUES:
 A  0.32520E+00  B  0.18138E+00  C  0.14544E+00
 PRINCIPAL AXES:
         X             Y             Z
 A  0.71193E+00 -0.66425E+00 -0.22788E+00
 B  0.65656E+00  0.74473E+00 -0.11962E+00
 C  0.24916E+00 -0.64456E-01  0.96631E+00
 NON BONDING WANNIER FUNCTION
 DISTANCE CENTROID-ATOM    4(  0  0  0) :   0.46182E+00
 ATOMIC POPULATION DATA:
  4 ZN(  0  0  0)  1.0003
 A.O. POPULATIONS OF ATOM    4(  0  0  0):
  -0.0000  -0.0037   0.0584   0.0414   0.0012   0.0005   0.0007   0.0002
  -0.0001  -0.0046  -0.0040  -0.0005   0.1229   0.1114   0.0143   0.0307
   0.0278   0.0035   0.0301   0.0157   0.0275   0.0016   0.2520   0.0181
   0.0095   0.0163   0.0009   0.1515   0.0071   0.0037   0.0061   0.0003
   0.0600
~~~~~~~~~~~~~~~~~~~~~~~~~~~~~~~~~~~~~~~~~~~~~~~~~~~~~~~~~~~~~~~~~~~~~~~~~~~~~~~~
 WANNIER NUMBER   23 ATOMIC EXTENT  1.0000
 CENTROID'S COORDINATES R0:   -0.38827E+01    0.24266E+01    0.36971E+01
 EXPECTATION VALUE OF (R-R0)**2:  0.41853E-01
 SECOND ORDER TENSOR IN CARTESIAN AXES:
         X             Y             Z
 X  0.15967E-01 -0.10107E-02 -0.14042E-02
 Y -0.10107E-02  0.12755E-01  0.42593E-03
 Z -0.14042E-02  0.42593E-03  0.13132E-01
 TENSOR EIGENVALUES:
 A  0.16839E-01  B  0.12459E-01  C  0.12555E-01
 PRINCIPAL AXES:
         X             Y             Z
 A  0.89294E+00 -0.25932E+00 -0.36797E+00
 B  0.20248E+00  0.96142E+00 -0.18621E+00
 C  0.40206E+00  0.91766E-01  0.91100E+00
 NON BONDING WANNIER FUNCTION
 DISTANCE CENTROID-ATOM    4(  0  0  0) :   0.10217E+00
 ATOMIC POPULATION DATA:
  4 ZN(  0  0  0)  1.0000
 A.O. POPULATIONS OF ATOM    4(  0  0  0):
  -0.0063   0.2658  -0.0035  -0.0062   0.0003  -0.0001  -0.0000  -0.0000
  -0.0000   0.6139   0.0515   0.1052  -0.0165  -0.0014  -0.0028   0.0001
   0.0000   0.0000   0.0000   0.0000   0.0000   0.0000   0.0000   0.0000
   0.0000   0.0000   0.0000   0.0000   0.0000   0.0000   0.0000   0.0000
   0.0000
~~~~~~~~~~~~~~~~~~~~~~~~~~~~~~~~~~~~~~~~~~~~~~~~~~~~~~~~~~~~~~~~~~~~~~~~~~~~~~~~
 WANNIER NUMBER   24 ATOMIC EXTENT  0.9980
 CENTROID'S COORDINATES R0:   -0.35077E+01   -0.24131E+01   -0.16497E+01
 EXPECTATION VALUE OF (R-R0)**2:  0.58665E+00
 SECOND ORDER TENSOR IN CARTESIAN AXES:
         X             Y             Z
 X  0.27874E+00  0.92568E-02  0.38900E-01
 Y  0.92568E-02  0.13595E+00  0.77408E-02
 Z  0.38900E-01  0.77408E-02  0.17196E+00
 TENSOR EIGENVALUES:
 A  0.29221E+00  B  0.13434E+00  C  0.16009E+00
 PRINCIPAL AXES:
         X             Y             Z
 A  0.94766E+00  0.71552E-01  0.31116E+00
 B -0.11798E-01  0.98175E+00 -0.18982E+00
 C -0.31906E+00  0.17622E+00  0.93121E+00
 NON BONDING WANNIER FUNCTION
 DISTANCE CENTROID-ATOM    3(  0  0  0) :   0.49355E+00
 ATOMIC POPULATION DATA:
  3 ZN(  0  0  0)  1.0010
 A.O. POPULATIONS OF ATOM    3(  0  0  0):
  -0.0001  -0.0042   0.0682   0.0483   0.0019   0.0019   0.0005  -0.0000
   0.0001  -0.0091  -0.0000  -0.0011   0.2572   0.0013   0.0298   0.0643
   0.0003   0.0075   0.0566   0.0905   0.0000   0.1408   0.0055   0.0336
   0.0544   0.0000   0.0836   0.0033   0.0123   0.0217   0.0000   0.0305
   0.0013
~~~~~~~~~~~~~~~~~~~~~~~~~~~~~~~~~~~~~~~~~~~~~~~~~~~~~~~~~~~~~~~~~~~~~~~~~~~~~~~~
 WANNIER NUMBER   25 ATOMIC EXTENT  0.9987
 CENTROID'S COORDINATES R0:   -0.44211E+01   -0.25496E+01   -0.16213E+01
 EXPECTATION VALUE OF (R-R0)**2:  0.59218E+00
 SECOND ORDER TENSOR IN CARTESIAN AXES:
         X             Y             Z
 X  0.27100E+00  0.20752E-01 -0.43044E-01
 Y  0.20752E-01  0.14632E+00 -0.21063E-01
 Z -0.43044E-01 -0.21063E-01  0.17486E+00
 TENSOR EIGENVALUES:
 A  0.29245E+00  B  0.13511E+00  C  0.16462E+00
 PRINCIPAL AXES:
         X             Y             Z
 A  0.91231E+00  0.18241E+00 -0.36663E+00
 B  0.20161E-01  0.87422E+00  0.48511E+00
 C  0.40901E+00 -0.44997E+00  0.79388E+00
 NON BONDING WANNIER FUNCTION
 DISTANCE CENTROID-ATOM    3(  0  0  0) :   0.49367E+00
 ATOMIC POPULATION DATA:
  3 ZN(  0  0  0)  1.0007
 A.O. POPULATIONS OF ATOM    3(  0  0  0):
  -0.0000  -0.0042   0.0683   0.0484   0.0019   0.0015   0.0008   0.0001
   0.0002  -0.0086  -0.0003  -0.0015   0.2341   0.0090   0.0425   0.0585
   0.0023   0.0107   0.0323   0.1148   0.0002   0.1143   0.0327   0.0192
   0.0690   0.0001   0.0679   0.0197   0.0069   0.0275   0.0000   0.0247
   0.0078
~~~~~~~~~~~~~~~~~~~~~~~~~~~~~~~~~~~~~~~~~~~~~~~~~~~~~~~~~~~~~~~~~~~~~~~~~~~~~~~~
 WANNIER NUMBER   26 ATOMIC EXTENT  0.9993
 CENTROID'S COORDINATES R0:   -0.36891E+01    0.22982E+01    0.40602E+01
 EXPECTATION VALUE OF (R-R0)**2:  0.65557E+00
 SECOND ORDER TENSOR IN CARTESIAN AXES:
         X             Y             Z
 X  0.22997E+00 -0.16160E-01  0.72552E-01
 Y -0.16160E-01  0.18896E+00 -0.49615E-01
 Z  0.72552E-01 -0.49615E-01  0.23664E+00
 TENSOR EIGENVALUES:
 A  0.14424E+00  B  0.18847E+00  C  0.32286E+00
 PRINCIPAL AXES:
         X             Y             Z
 A  0.45984E+00 -0.57993E+00 -0.67248E+00
 B  0.64045E+00  0.74117E+00 -0.20122E+00
 C  0.61512E+00 -0.33816E+00  0.71223E+00
 NON BONDING WANNIER FUNCTION
 DISTANCE CENTROID-ATOM    4(  0  0  0) :   0.45929E+00
 ATOMIC POPULATION DATA:
  4 ZN(  0  0  0)  1.0003
 A.O. POPULATIONS OF ATOM    4(  0  0  0):
  -0.0000  -0.0038   0.0593   0.0417   0.0013  -0.0003   0.0001  -0.0000
   0.0005  -0.0036  -0.0011  -0.0047   0.0960   0.0287   0.1240   0.0239
   0.0071   0.0309   0.0308   0.1707   0.0341   0.0180   0.0728   0.0186
   0.1025   0.0203   0.0108   0.0438   0.0075   0.0410   0.0078   0.0044
   0.0173
~~~~~~~~~~~~~~~~~~~~~~~~~~~~~~~~~~~~~~~~~~~~~~~~~~~~~~~~~~~~~~~~~~~~~~~~~~~~~~~~
 WANNIER NUMBER   27 ATOMIC EXTENT  0.9907
 CENTROID'S COORDINATES R0:   -0.12362E-01    0.49089E+01   -0.15023E+01
 EXPECTATION VALUE OF (R-R0)**2:  0.31644E+01
 SECOND ORDER TENSOR IN CARTESIAN AXES:
         X             Y             Z
 X  0.89555E+00 -0.61216E-02 -0.87643E-03
 Y -0.61216E-02  0.13746E+01 -0.14137E-01
 Z -0.87643E-03 -0.14137E-01  0.89426E+00
 TENSOR EIGENVALUES:
 A  0.89599E+00  B  0.13751E+01  C  0.89333E+00
 PRINCIPAL AXES:
         X             Y             Z
 A  0.89712E+00 -0.15747E-02 -0.44179E+00
 B -0.12704E-01  0.99949E+00 -0.29361E-01
 C  0.44161E+00  0.31953E-01  0.89664E+00
 NON BONDING WANNIER FUNCTION
 DISTANCE CENTROID-ATOM    1(  0  0  0) :   0.86983E+00
 ATOMIC POPULATION DATA:
  1 BA(  0  0  0)  1.0047
 A.O. POPULATIONS OF ATOM    1(  0  0  0):
   0.0360   0.2383  -0.0118   0.0000   0.1164   0.0002   0.0001   0.6246
   0.0009   0.0000   0.0000   0.0000   0.0000   0.0000   0.0000   0.0000
   0.0000   0.0000   0.0000
~~~~~~~~~~~~~~~~~~~~~~~~~~~~~~~~~~~~~~~~~~~~~~~~~~~~~~~~~~~~~~~~~~~~~~~~~~~~~~~~
 WANNIER NUMBER   28 ATOMIC EXTENT  0.9861
 CENTROID'S COORDINATES R0:   -0.71703E+00   -0.37425E+01    0.44844E+01
 EXPECTATION VALUE OF (R-R0)**2:  0.31581E+01
 SECOND ORDER TENSOR IN CARTESIAN AXES:
         X             Y             Z
 X  0.12188E+01 -0.12937E+00 -0.18810E+00
 Y -0.12937E+00  0.94092E+00  0.71324E-01
 Z -0.18810E+00  0.71324E-01  0.99835E+00
 TENSOR EIGENVALUES:
 A  0.13767E+01  B  0.88839E+00  C  0.89302E+00
 PRINCIPAL AXES:
         X             Y             Z
 A  0.82251E+00 -0.32104E+00 -0.46948E+00
 B  0.55207E+00  0.64911E+00  0.52333E+00
 C  0.13674E+00 -0.68963E+00  0.71114E+00
 NON BONDING WANNIER FUNCTION
 DISTANCE CENTROID-ATOM    2(  0  0  0) :   0.87955E+00
 ATOMIC POPULATION DATA:
  2 BA(  0  0  0)  1.0070
 A.O. POPULATIONS OF ATOM    2(  0  0  0):
   0.0330   0.2143  -0.0030   0.0814   0.0129   0.0268   0.4319   0.0662
   0.1435   0.0000   0.0000   0.0000   0.0000   0.0000   0.0000   0.0000
   0.0000   0.0000   0.0001
~~~~~~~~~~~~~~~~~~~~~~~~~~~~~~~~~~~~~~~~~~~~~~~~~~~~~~~~~~~~~~~~~~~~~~~~~~~~~~~~
 WANNIER NUMBER   29 ATOMIC EXTENT  1.0334
 CENTROID'S COORDINATES R0:   -0.39754E+01    0.59133E+01    0.16423E+01
 EXPECTATION VALUE OF (R-R0)**2:  0.16705E+01
 SECOND ORDER TENSOR IN CARTESIAN AXES:
         X             Y             Z
 X  0.42552E+00 -0.37828E-03 -0.31232E-03
 Y -0.37828E-03  0.73899E+00  0.18099E+00
 Z -0.31232E-03  0.18099E+00  0.50597E+00
 TENSOR EIGENVALUES:
 A  0.42552E+00  B  0.83773E+00  C  0.40723E+00
 PRINCIPAL AXES:
         X             Y             Z
 A  0.99999E+00  0.34615E-02 -0.39051E-02
 B -0.11685E-02  0.87786E+00  0.47892E+00
 C  0.50859E-02 -0.47891E+00  0.87785E+00
 NON BONDING WANNIER FUNCTION
 DISTANCE CENTROID-ATOM    6(  0  0  0) :   0.55386E+00
 ATOMIC POPULATION DATA:
  6 F (  0  0  0)  0.9837   2 BA(  0  1  0)  0.0108
 A.O. POPULATIONS OF ATOM    6(  0  0  0):
   0.0014  -0.0085   0.0734   0.1182   0.0847   0.0000   0.1843   0.0537
   0.0000   0.1746   0.0502   0.0000   0.1956   0.0561   0.0000   0.0000
   0.0000   0.0000   0.0000
 A.O. POPULATIONS OF ATOM    2(  0  1  0):
  -0.0000  -0.0013   0.0052   0.0000  -0.0008  -0.0005  -0.0000  -0.0005
  -0.0002   0.0000   0.0000   0.0004   0.0002   0.0000   0.0001   0.0000
   0.0050   0.0032   0.0000
~~~~~~~~~~~~~~~~~~~~~~~~~~~~~~~~~~~~~~~~~~~~~~~~~~~~~~~~~~~~~~~~~~~~~~~~~~~~~~~~
 WANNIER NUMBER   30 ATOMIC EXTENT  1.1380
 CENTROID'S COORDINATES R0:   -0.39748E+01   -0.82404E-01   -0.54277E+01
 EXPECTATION VALUE OF (R-R0)**2:  0.16963E+01
 SECOND ORDER TENSOR IN CARTESIAN AXES:
         X             Y             Z
 X  0.44971E+00 -0.91681E-03  0.30064E-03
 Y -0.91681E-03  0.74955E+00 -0.12449E+00
 Z  0.30064E-03 -0.12449E+00  0.49702E+00
 TENSOR EIGENVALUES:
 A  0.44971E+00  B  0.80060E+00  C  0.44597E+00
 PRINCIPAL AXES:
         X             Y             Z
 A  0.99982E+00 -0.45253E-02 -0.18262E-01
 B -0.27425E-02  0.92522E+00 -0.37941E+00
 C  0.18614E-01  0.37939E+00  0.92505E+00
 BONDING WANNIER FUNCTION BETWEEN ATOMS:
 A:  11 F (  0  0  0) X -0.397391E+01 Y -0.647945E+00 Z -0.524468E+01 (AU)
 B:   4 ZN(  0  0 -1) X -0.397391E+01 Y  0.245299E+01 Z -0.734839E+01 (AU)
 DISTANCE OF THE CENTROID FROM THE ATOMS A,B AND FROM THE A-B BOND:
  0.59443E+00  0.31807E+01  0.16602E+00
 POLARISATION FRACTION (0: COVALENT; 1: VERY IONIC)  0.69536E+00
 ATOMIC POPULATION DATA:
 11 F (  0  0  0)  0.9355   4 ZN(  0  0 -1)  0.0588
 A.O. POPULATIONS OF ATOM   11(  0  0  0):
   0.0014  -0.0076   0.0652   0.1174   0.0685   0.0000   0.2043   0.0171
   0.0000   0.2003   0.0165   0.0000   0.2320   0.0203   0.0000   0.0000
   0.0000   0.0000   0.0000
 A.O. POPULATIONS OF ATOM    4(  0  0 -1):
  -0.0000   0.0001   0.0002  -0.0021   0.0049   0.0224   0.0000   0.0175
   0.0133  -0.0000   0.0000   0.0000   0.0000   0.0002   0.0001   0.0000
   0.0002   0.0000   0.0000   0.0000   0.0008   0.0002   0.0000  -0.0000
   0.0000  -0.0001  -0.0001   0.0000   0.0000   0.0000   0.0009   0.0003
   0.0000
~~~~~~~~~~~~~~~~~~~~~~~~~~~~~~~~~~~~~~~~~~~~~~~~~~~~~~~~~~~~~~~~~~~~~~~~~~~~~~~~
 WANNIER NUMBER   31 ATOMIC EXTENT  1.1395
 CENTROID'S COORDINATES R0:   -0.39765E+01    0.83027E-01    0.11706E+00
 EXPECTATION VALUE OF (R-R0)**2:  0.16783E+01
 SECOND ORDER TENSOR IN CARTESIAN AXES:
         X             Y             Z
 X  0.44668E+00  0.22511E-02  0.97205E-03
 Y  0.22511E-02  0.74217E+00  0.11855E+00
 Z  0.97205E-03  0.11855E+00  0.48949E+00
 TENSOR EIGENVALUES:
 A  0.44667E+00  B  0.78910E+00  C  0.44258E+00
 PRINCIPAL AXES:
         X             Y             Z
 A  0.99980E+00 -0.13449E-01  0.14538E-01
 B  0.71574E-02  0.92982E+00  0.36795E+00
 C -0.18466E-01 -0.36777E+00  0.92973E+00
 BONDING WANNIER FUNCTION BETWEEN ATOMS:
 A:  12 F (  0  0  0) X -0.397391E+01 Y  0.647945E+00 Z  0.296919E+00 (AU)
 B:   3 ZN(  0  0  0) X -0.397391E+01 Y -0.245299E+01 Z -0.180678E+01 (AU)
 DISTANCE OF THE CENTROID FROM THE ATOMS A,B AND FROM THE A-B BOND:
  0.59287E+00  0.31832E+01  0.16833E+00
 POLARISATION FRACTION (0: COVALENT; 1: VERY IONIC)  0.69659E+00
 ATOMIC POPULATION DATA:
  3 ZN(  0  0  0)  0.0594  12 F (  0  0  0)  0.9349
 A.O. POPULATIONS OF ATOM    3(  0  0  0):
  -0.0000   0.0000   0.0007  -0.0016   0.0045   0.0218   0.0000   0.0174
   0.0133  -0.0000  -0.0000  -0.0000   0.0000   0.0005   0.0003   0.0000
   0.0001  -0.0000   0.0000   0.0000   0.0002   0.0001   0.0000  -0.0000
   0.0000  -0.0002  -0.0001   0.0000   0.0000   0.0000   0.0018   0.0006
  -0.0000
 A.O. POPULATIONS OF ATOM   12(  0  0  0):
   0.0014  -0.0076   0.0651   0.1171   0.0683   0.0000   0.2047   0.0166
   0.0000   0.2008   0.0160   0.0000   0.2327   0.0198   0.0000  -0.0000
   0.0000   0.0000   0.0000
~~~~~~~~~~~~~~~~~~~~~~~~~~~~~~~~~~~~~~~~~~~~~~~~~~~~~~~~~~~~~~~~~~~~~~~~~~~~~~~~
 WANNIER NUMBER   32 ATOMIC EXTENT  1.0287
 CENTROID'S COORDINATES R0:   -0.39743E+01    0.52588E+01   -0.46050E+01
 EXPECTATION VALUE OF (R-R0)**2:  0.16149E+01
 SECOND ORDER TENSOR IN CARTESIAN AXES:
         X             Y             Z
 X  0.42307E+00  0.97342E-03 -0.24863E-03
 Y  0.97342E-03  0.72392E+00 -0.12516E+00
 Z -0.24863E-03 -0.12516E+00  0.46792E+00
 TENSOR EIGENVALUES:
 A  0.42307E+00  B  0.77495E+00  C  0.41689E+00
 PRINCIPAL AXES:
         X             Y             Z
 A  0.99975E+00  0.57712E-02  0.21648E-01
 B  0.28284E-02  0.92601E+00 -0.37749E+00
 C -0.22225E-01  0.37745E+00  0.92576E+00
 NON BONDING WANNIER FUNCTION
 DISTANCE CENTROID-ATOM    8(  0  0  0) :   0.53720E+00
 ATOMIC POPULATION DATA:
  8 F (  0  0  0)  0.9859
 A.O. POPULATIONS OF ATOM    8(  0  0  0):
   0.0013  -0.0083   0.0713   0.1160   0.0804  -0.0000   0.2087   0.0329
   0.0000   0.1973   0.0314   0.0000   0.2196   0.0352   0.0000   0.0000
  -0.0000   0.0000   0.0000
~~~~~~~~~~~~~~~~~~~~~~~~~~~~~~~~~~~~~~~~~~~~~~~~~~~~~~~~~~~~~~~~~~~~~~~~~~~~~~~~
 WANNIER NUMBER   33 ATOMIC EXTENT  1.0343
 CENTROID'S COORDINATES R0:   -0.44307E+01   -0.46691E+01    0.14506E+01
 EXPECTATION VALUE OF (R-R0)**2:  0.16711E+01
 SECOND ORDER TENSOR IN CARTESIAN AXES:
         X             Y             Z
 X  0.69209E+00 -0.41462E-01 -0.20077E+00
 Y -0.41462E-01  0.41356E+00  0.31624E-01
 Z -0.20077E+00  0.31624E-01  0.56548E+00
 TENSOR EIGENVALUES:
 A  0.84559E+00  B  0.40719E+00  C  0.41835E+00
 PRINCIPAL AXES:
         X             Y             Z
 A  0.80047E+00 -0.11981E+00 -0.58727E+00
 B  0.44209E-01  0.98895E+00 -0.14150E+00
 C  0.59773E+00  0.87302E-01  0.79693E+00
 NON BONDING WANNIER FUNCTION
 DISTANCE CENTROID-ATOM    7(  0  0  0) :   0.55864E+00
 ATOMIC POPULATION DATA:
  7 F (  0  0  0)  0.9832   2 BA( -1  1  0)  0.0119
 A.O. POPULATIONS OF ATOM    7(  0  0  0):
   0.0013  -0.0081   0.0705   0.1083   0.0879   0.1600   0.0059   0.0736
   0.1531   0.0053   0.0695   0.1719   0.0059   0.0781   0.0000   0.0000
   0.0000  -0.0000   0.0000
 A.O. POPULATIONS OF ATOM    2( -1  1  0):
  -0.0000  -0.0016   0.0059  -0.0011  -0.0000  -0.0006  -0.0005  -0.0000
  -0.0003   0.0000   0.0005   0.0000   0.0002   0.0000   0.0000   0.0062
   0.0002   0.0027   0.0003
~~~~~~~~~~~~~~~~~~~~~~~~~~~~~~~~~~~~~~~~~~~~~~~~~~~~~~~~~~~~~~~~~~~~~~~~~~~~~~~~
 WANNIER NUMBER   34 ATOMIC EXTENT  1.0322
 CENTROID'S COORDINATES R0:   -0.44274E+01   -0.53616E+01   -0.44795E+01
 EXPECTATION VALUE OF (R-R0)**2:  0.16691E+01
 SECOND ORDER TENSOR IN CARTESIAN AXES:
         X             Y             Z
 X  0.68213E+00 -0.43257E-01  0.19192E+00
 Y -0.43257E-01  0.43287E+00 -0.41271E-01
 Z  0.19192E+00 -0.41271E-01  0.55414E+00
 TENSOR EIGENVALUES:
 A  0.82929E+00  B  0.42900E+00  C  0.41084E+00
 PRINCIPAL AXES:
         X             Y             Z
 A  0.80064E+00 -0.14781E+00  0.58062E+00
 B  0.40956E+00  0.84234E+00 -0.35031E+00
 C -0.43731E+00  0.51827E+00  0.73495E+00
 NON BONDING WANNIER FUNCTION
 DISTANCE CENTROID-ATOM    5(  0  0  0) :   0.55430E+00
 ATOMIC POPULATION DATA:
  5 F (  0  0  0)  0.9842   2 BA( -1  1 -1)  0.0111
 A.O. POPULATIONS OF ATOM    5(  0  0  0):
   0.0013  -0.0080   0.0697   0.1074   0.0863   0.1619   0.0025   0.0776
   0.1535   0.0021   0.0734   0.1720   0.0023   0.0823   0.0000   0.0000
   0.0000  -0.0000   0.0000
 A.O. POPULATIONS OF ATOM    2( -1  1 -1):
  -0.0000  -0.0014   0.0054  -0.0008  -0.0000  -0.0004  -0.0004  -0.0001
  -0.0002   0.0000   0.0003   0.0001   0.0001   0.0001   0.0000   0.0045
   0.0008   0.0015   0.0015
~~~~~~~~~~~~~~~~~~~~~~~~~~~~~~~~~~~~~~~~~~~~~~~~~~~~~~~~~~~~~~~~~~~~~~~~~~~~~~~~
 WANNIER NUMBER   35 ATOMIC EXTENT  1.1212
 CENTROID'S COORDINATES R0:    0.47469E+00    0.23317E+01    0.38573E+01
 EXPECTATION VALUE OF (R-R0)**2:  0.17316E+01
 SECOND ORDER TENSOR IN CARTESIAN AXES:
         X             Y             Z
 X  0.75742E+00  0.84288E-01  0.12075E+00
 Y  0.84288E-01  0.46141E+00  0.37758E-01
 Z  0.12075E+00  0.37758E-01  0.51274E+00
 TENSOR EIGENVALUES:
 A  0.83009E+00  B  0.43798E+00  C  0.46351E+00
 PRINCIPAL AXES:
         X             Y             Z
 A  0.89668E+00  0.24290E+00  0.37008E+00
 B -0.18057E+00  0.96399E+00 -0.19522E+00
 C -0.40417E+00  0.10822E+00  0.90826E+00
 BONDING WANNIER FUNCTION BETWEEN ATOMS:
 A:   9 F (  0  0  0) X -0.235350E-16 Y  0.215146E+01 Z  0.360747E+01 (AU)
 B:   4 ZN(  1 -1  0) X  0.397391E+01 Y  0.245299E+01 Z  0.373482E+01 (AU)
 DISTANCE OF THE CENTROID FROM THE ATOMS A,B AND FROM THE A-B BOND:
  0.56588E+00  0.35035E+01  0.27476E+00
 POLARISATION FRACTION (0: COVALENT; 1: VERY IONIC)  0.75187E+00
 ATOMIC POPULATION DATA:
  9 F (  0  0  0)  0.9432   4 ZN(  1 -1  0)  0.0470
 A.O. POPULATIONS OF ATOM    9(  0  0  0):
   0.0015  -0.0078   0.0681   0.1150   0.0761   0.1479   0.0244   0.0504
   0.1449   0.0236   0.0485   0.1703   0.0264   0.0540   0.0000   0.0000
   0.0000   0.0000   0.0000
 A.O. POPULATIONS OF ATOM    4(  1 -1  0):
  -0.0000   0.0000   0.0001  -0.0009   0.0008   0.0185   0.0264  -0.0000
   0.0003   0.0000  -0.0000   0.0000   0.0002  -0.0000   0.0000   0.0000
   0.0000  -0.0000   0.0002   0.0000   0.0000   0.0006   0.0000  -0.0000
   0.0000   0.0000  -0.0000   0.0000   0.0001   0.0000   0.0000   0.0006
  -0.0000
~~~~~~~~~~~~~~~~~~~~~~~~~~~~~~~~~~~~~~~~~~~~~~~~~~~~~~~~~~~~~~~~~~~~~~~~~~~~~~~~
 WANNIER NUMBER   36 ATOMIC EXTENT  1.0425
 CENTROID'S COORDINATES R0:   -0.29016E-02   -0.23475E+01   -0.24491E+01
 EXPECTATION VALUE OF (R-R0)**2:  0.16470E+01
 SECOND ORDER TENSOR IN CARTESIAN AXES:
         X             Y             Z
 X  0.42729E+00  0.67005E-03  0.16052E-02
 Y  0.67005E-03  0.44745E+00  0.12697E+00
 Z  0.16052E-02  0.12697E+00  0.77224E+00
 TENSOR EIGENVALUES:
 A  0.42729E+00  B  0.40370E+00  C  0.81599E+00
 PRINCIPAL AXES:
         X             Y             Z
 A  0.99998E+00  0.29796E-02 -0.57502E-02
 B -0.46902E-02  0.94545E+00 -0.32572E+00
 C  0.44660E-02  0.32574E+00  0.94545E+00
 ATOMIC POPULATION DATA:
 10 F (  0  0  0)  0.9793
 A.O. POPULATIONS OF ATOM   10(  0  0  0):
   0.0011  -0.0074   0.0636   0.1032   0.0752   0.0000   0.0299   0.2165
   0.0000   0.0286   0.2063   0.0000   0.0320   0.2304   0.0000  -0.0000
   0.0000   0.0000   0.0000
~~~~~~~~~~~~~~~~~~~~~~~~~~~~~~~~~~~~~~~~~~~~~~~~~~~~~~~~~~~~~~~~~~~~~~~~~~~~~~~~
 WANNIER NUMBER   37 ATOMIC EXTENT  0.9906
 CENTROID'S COORDINATES R0:    0.19346E-01   -0.36748E+01    0.32512E+01
 EXPECTATION VALUE OF (R-R0)**2:  0.31510E+01
 SECOND ORDER TENSOR IN CARTESIAN AXES:
         X             Y             Z
 X  0.88645E+00  0.45032E-02 -0.82104E-02
 Y  0.45032E-02  0.96307E+00 -0.17129E+00
 Z -0.82104E-02 -0.17129E+00  0.13015E+01
 TENSOR EIGENVALUES:
 A  0.88609E+00  B  0.89168E+00  C  0.13732E+01
 PRINCIPAL AXES:
         X             Y             Z
 A  0.98348E+00 -0.17338E+00 -0.52062E-01
 B  0.18002E+00  0.90627E+00  0.38244E+00
 C -0.19127E-01 -0.38550E+00  0.92251E+00
 NON BONDING WANNIER FUNCTION
 DISTANCE CENTROID-ATOM    2(  0  0  0) :   0.89721E+00
 ATOMIC POPULATION DATA:
  2 BA(  0  0  0)  1.0048
 A.O. POPULATIONS OF ATOM    2(  0  0  0):
   0.0335   0.2164  -0.0015   0.0001   0.0189   0.1027   0.0003   0.0954
   0.5387   0.0000   0.0000   0.0000   0.0000   0.0000   0.0000   0.0000
   0.0001   0.0000   0.0000
~~~~~~~~~~~~~~~~~~~~~~~~~~~~~~~~~~~~~~~~~~~~~~~~~~~~~~~~~~~~~~~~~~~~~~~~~~~~~~~~
 WANNIER NUMBER   38 ATOMIC EXTENT  0.9873
 CENTROID'S COORDINATES R0:    0.70883E+00   -0.37557E+01    0.45147E+01
 EXPECTATION VALUE OF (R-R0)**2:  0.31616E+01
 SECOND ORDER TENSOR IN CARTESIAN AXES:
         X             Y             Z
 X  0.12111E+01  0.12110E+00  0.20272E+00
 Y  0.12110E+00  0.93459E+00  0.72323E-01
 Z  0.20272E+00  0.72323E-01  0.10160E+01
 TENSOR EIGENVALUES:
 A  0.13829E+01  B  0.88622E+00  C  0.89256E+00
 PRINCIPAL AXES:
         X             Y             Z
 A  0.80868E+00  0.30008E+00  0.50595E+00
 B -0.57608E+00  0.57801E+00  0.57796E+00
 C -0.11901E+00 -0.75885E+00  0.64030E+00
 NON BONDING WANNIER FUNCTION
 DISTANCE CENTROID-ATOM    2(  0  0  0) :   0.88330E+00
 ATOMIC POPULATION DATA:
  2 BA(  0  0  0)  1.0064
 A.O. POPULATIONS OF ATOM    2(  0  0  0):
   0.0330   0.2142  -0.0025   0.0784   0.0116   0.0303   0.4178   0.0598
   0.1636   0.0000   0.0000   0.0000   0.0000   0.0000   0.0000   0.0000
   0.0000   0.0000   0.0001
~~~~~~~~~~~~~~~~~~~~~~~~~~~~~~~~~~~~~~~~~~~~~~~~~~~~~~~~~~~~~~~~~~~~~~~~~~~~~~~~
 WANNIER NUMBER   39 ATOMIC EXTENT  0.9913
 CENTROID'S COORDINATES R0:    0.50333E-01    0.36872E+01   -0.22962E+01
 EXPECTATION VALUE OF (R-R0)**2:  0.31561E+01
 SECOND ORDER TENSOR IN CARTESIAN AXES:
         X             Y             Z
 X  0.89200E+00 -0.11538E-01 -0.25166E-01
 Y -0.11538E-01  0.95859E+00  0.16308E+00
 Z -0.25166E-01  0.16308E+00  0.13055E+01
 TENSOR EIGENVALUES:
 A  0.88989E+00  B  0.89448E+00  C  0.13717E+01
 PRINCIPAL AXES:
         X             Y             Z
 A  0.94026E+00  0.33243E+00 -0.73515E-01
 B -0.33557E+00  0.86838E+00 -0.36513E+00
 C -0.57540E-01  0.36798E+00  0.92805E+00
 NON BONDING WANNIER FUNCTION
 DISTANCE CENTROID-ATOM    1(  0  0  0) :   0.89874E+00
 ATOMIC POPULATION DATA:
  1 BA(  0  0  0)  1.0044
 A.O. POPULATIONS OF ATOM    1(  0  0  0):
   0.0333   0.2149  -0.0005   0.0004   0.0177   0.1032   0.0020   0.0887
   0.5446   0.0000   0.0000   0.0000   0.0000   0.0000   0.0000   0.0000
   0.0001   0.0000   0.0000
~~~~~~~~~~~~~~~~~~~~~~~~~~~~~~~~~~~~~~~~~~~~~~~~~~~~~~~~~~~~~~~~~~~~~~~~~~~~~~~~
 WANNIER NUMBER   40 ATOMIC EXTENT  0.9902
 CENTROID'S COORDINATES R0:   -0.75867E-02   -0.49079E+01    0.40284E+01
 EXPECTATION VALUE OF (R-R0)**2:  0.31607E+01
 SECOND ORDER TENSOR IN CARTESIAN AXES:
         X             Y             Z
 X  0.89295E+00  0.42719E-02  0.69653E-03
 Y  0.42719E-02  0.13748E+01  0.20135E-01
 Z  0.69653E-03  0.20135E-01  0.89294E+00
 TENSOR EIGENVALUES:
 A  0.89317E+00  B  0.13756E+01  C  0.89185E+00
 PRINCIPAL AXES:
         X             Y             Z
 A  0.89888E+00 -0.26261E-01  0.43742E+00
 B  0.89023E-02  0.99909E+00  0.41688E-01
 C -0.43811E+00 -0.33578E-01  0.89829E+00
 NON BONDING WANNIER FUNCTION
 DISTANCE CENTROID-ATOM    2(  0  0  0) :   0.86928E+00
 ATOMIC POPULATION DATA:
  2 BA(  0  0  0)  1.0049
 A.O. POPULATIONS OF ATOM    2(  0  0  0):
   0.0360   0.2388  -0.0121   0.0000   0.1166   0.0003   0.0001   0.6236
   0.0017   0.0000   0.0000   0.0000   0.0000   0.0000   0.0000  -0.0000
   0.0000   0.0000   0.0000
~~~~~~~~~~~~~~~~~~~~~~~~~~~~~~~~~~~~~~~~~~~~~~~~~~~~~~~~~~~~~~~~~~~~~~~~~~~~~~~~
 WANNIER NUMBER   41 ATOMIC EXTENT  0.9872
 CENTROID'S COORDINATES R0:   -0.72741E+00    0.37305E+01   -0.10857E+01
 EXPECTATION VALUE OF (R-R0)**2:  0.31683E+01
 SECOND ORDER TENSOR IN CARTESIAN AXES:
         X             Y             Z
 X  0.12336E+01  0.13695E+00 -0.18107E+00
 Y  0.13695E+00  0.94778E+00 -0.69794E-01
 Z -0.18107E+00 -0.69794E-01  0.98696E+00
 TENSOR EIGENVALUES:
 A  0.13836E+01  B  0.89488E+00  C  0.88990E+00
 PRINCIPAL AXES:
         X             Y             Z
 A  0.83440E+00  0.33260E+00 -0.43948E+00
 B -0.13963E-01  0.80989E+00  0.58641E+00
 C  0.55097E+00 -0.48317E+00  0.68042E+00
 NON BONDING WANNIER FUNCTION
 DISTANCE CENTROID-ATOM    1(  0  0  0) :   0.87928E+00
 ATOMIC POPULATION DATA:
  1 BA(  0  0  0)  1.0065
 A.O. POPULATIONS OF ATOM    1(  0  0  0):
   0.0332   0.2160  -0.0037   0.0831   0.0139   0.0230   0.4443   0.0719
   0.1247   0.0000   0.0000   0.0000   0.0000   0.0000   0.0000   0.0000
   0.0000   0.0000   0.0000
~~~~~~~~~~~~~~~~~~~~~~~~~~~~~~~~~~~~~~~~~~~~~~~~~~~~~~~~~~~~~~~~~~~~~~~~~~~~~~~~
 WANNIER NUMBER   42 ATOMIC EXTENT  0.9879
 CENTROID'S COORDINATES R0:    0.69730E+00    0.37553E+01   -0.10098E+01
 EXPECTATION VALUE OF (R-R0)**2:  0.31673E+01
 SECOND ORDER TENSOR IN CARTESIAN AXES:
         X             Y             Z
 X  0.12010E+01 -0.11919E+00  0.20551E+00
 Y -0.11919E+00  0.93487E+00 -0.76817E-01
 Z  0.20551E+00 -0.76817E-01  0.10314E+01
 TENSOR EIGENVALUES:
 A  0.13834E+01  B  0.88895E+00  C  0.89502E+00
 PRINCIPAL AXES:
         X             Y             Z
 A  0.79325E+00 -0.30144E+00  0.52905E+00
 B  0.46302E+00  0.86289E+00 -0.20259E+00
 C -0.39544E+00  0.40566E+00  0.82406E+00
 NON BONDING WANNIER FUNCTION
 DISTANCE CENTROID-ATOM    1(  0  0  0) :   0.88304E+00
 ATOMIC POPULATION DATA:
  1 BA(  0  0  0)  1.0061
 A.O. POPULATIONS OF ATOM    1(  0  0  0):
   0.0329   0.2139  -0.0024   0.0754   0.0116   0.0329   0.4040   0.0601
   0.1776   0.0000   0.0000   0.0000   0.0000   0.0000   0.0000   0.0000
   0.0000   0.0000   0.0001
~~~~~~~~~~~~~~~~~~~~~~~~~~~~~~~~~~~~~~~~~~~~~~~~~~~~~~~~~~~~~~~~~~~~~~~~~~~~~~~~
 WANNIER NUMBER   43 ATOMIC EXTENT  1.0333
 CENTROID'S COORDINATES R0:   -0.39734E+01   -0.59133E+01   -0.39001E+01
 EXPECTATION VALUE OF (R-R0)**2:  0.16712E+01
 SECOND ORDER TENSOR IN CARTESIAN AXES:
         X             Y             Z
 X  0.42511E+00 -0.18909E-03  0.23807E-03
 Y -0.18909E-03  0.74020E+00 -0.18153E+00
 Z  0.23807E-03 -0.18153E+00  0.50586E+00
 TENSOR EIGENVALUES:
 A  0.42511E+00  B  0.83910E+00  C  0.40697E+00
 PRINCIPAL AXES:
         X             Y             Z
 A  0.99998E+00  0.37214E-02  0.54179E-02
 B -0.67619E-03  0.87815E+00 -0.47838E+00
 C -0.65380E-02  0.47836E+00  0.87814E+00
 NON BONDING WANNIER FUNCTION
 DISTANCE CENTROID-ATOM    5(  0  0  0) :   0.55345E+00
 ATOMIC POPULATION DATA:
  5 F (  0  0  0)  0.9837   1 BA( -1  0  0)  0.0108
 A.O. POPULATIONS OF ATOM    5(  0  0  0):
   0.0014  -0.0085   0.0733   0.1181   0.0847   0.0000   0.1846   0.0535
   0.0000   0.1749   0.0499   0.0000   0.1959   0.0558   0.0000   0.0000
   0.0000   0.0000   0.0000
 A.O. POPULATIONS OF ATOM    1( -1  0  0):
  -0.0000  -0.0013   0.0052  -0.0000  -0.0008  -0.0005   0.0000  -0.0005
  -0.0002   0.0000   0.0000   0.0004   0.0002   0.0000   0.0001   0.0000
   0.0050   0.0032   0.0000
~~~~~~~~~~~~~~~~~~~~~~~~~~~~~~~~~~~~~~~~~~~~~~~~~~~~~~~~~~~~~~~~~~~~~~~~~~~~~~~~
 WANNIER NUMBER   44 ATOMIC EXTENT  1.1575
 CENTROID'S COORDINATES R0:   -0.39735E+01   -0.43558E+01    0.67799E+00
 EXPECTATION VALUE OF (R-R0)**2:  0.17122E+01
 SECOND ORDER TENSOR IN CARTESIAN AXES:
         X             Y             Z
 X  0.46882E+00  0.88146E-03 -0.85641E-03
 Y  0.88146E-03  0.58689E+00 -0.16461E+00
 Z -0.85641E-03 -0.16461E+00  0.65646E+00
 TENSOR EIGENVALUES:
 A  0.46882E+00  B  0.45343E+00  C  0.78993E+00
 PRINCIPAL AXES:
         X             Y             Z
 A  0.99995E+00  0.49451E-02  0.89017E-02
 B -0.94473E-02  0.77676E+00  0.62972E+00
 C -0.38005E-02 -0.62978E+00  0.77677E+00
 BONDING WANNIER FUNCTION BETWEEN ATOMS:
 A:   7 F (  0  0  0) X -0.397391E+01 Y -0.476280E+01 Z  0.114290E+01 (AU)
 B:   3 ZN(  0  0  0) X -0.397391E+01 Y -0.245299E+01 Z -0.180678E+01 (AU)
 DISTANCE OF THE CENTROID FROM THE ATOMS A,B AND FROM THE A-B BOND:
  0.61790E+00  0.31296E+01  0.33818E-01
 POLARISATION FRACTION (0: COVALENT; 1: VERY IONIC)  0.67063E+00
 ATOMIC POPULATION DATA:
  3 ZN(  0  0  0)  0.0700   7 F (  0  0  0)  0.9268
 A.O. POPULATIONS OF ATOM    3(  0  0  0):
  -0.0000  -0.0000   0.0009  -0.0018   0.0052   0.0258   0.0000   0.0122
   0.0243   0.0000  -0.0000  -0.0000   0.0000   0.0003   0.0006  -0.0000
   0.0000  -0.0000   0.0000   0.0000   0.0003   0.0000   0.0000  -0.0001
   0.0000  -0.0002  -0.0000   0.0000   0.0006   0.0000   0.0016   0.0003
   0.0000
 A.O. POPULATIONS OF ATOM    7(  0  0  0):
   0.0012  -0.0066   0.0565   0.1032   0.0595   0.0000   0.0999   0.1331
   0.0000   0.0952   0.1271   0.0000   0.1102   0.1475   0.0000   0.0000
   0.0001   0.0000   0.0000
~~~~~~~~~~~~~~~~~~~~~~~~~~~~~~~~~~~~~~~~~~~~~~~~~~~~~~~~~~~~~~~~~~~~~~~~~~~~~~~~
 WANNIER NUMBER   45 ATOMIC EXTENT  0.9923
 CENTROID'S COORDINATES R0:   -0.39722E+01    0.28251E+01    0.34159E+01
 EXPECTATION VALUE OF (R-R0)**2:  0.56832E+00
 SECOND ORDER TENSOR IN CARTESIAN AXES:
         X             Y             Z
 X  0.14255E+00 -0.72715E-02 -0.77765E-02
 Y -0.72715E-02  0.22127E+00 -0.55917E-01
 Z -0.77765E-02 -0.55917E-01  0.20450E+00
 TENSOR EIGENVALUES:
 A  0.13677E+00  B  0.26943E+00  C  0.16212E+00
 PRINCIPAL AXES:
         X             Y             Z
 A  0.87863E+00  0.31378E+00  0.35993E+00
 B -0.34576E-02  0.75794E+00 -0.65231E+00
 C -0.47749E+00  0.57190E+00  0.66704E+00
 NON BONDING WANNIER FUNCTION
 DISTANCE CENTROID-ATOM    4(  0  0  0) :   0.49006E+00
 ATOMIC POPULATION DATA:
  4 ZN(  0  0  0)  1.0038
 A.O. POPULATIONS OF ATOM    4(  0  0  0):
  -0.0001  -0.0045   0.0730   0.0515   0.0012  -0.0012   0.0000   0.0004
   0.0001   0.0000  -0.0061  -0.0046   0.0000   0.1635   0.1257   0.0000
   0.0408   0.0311   0.0025   0.0017   0.2309   0.0577   0.0017   0.0015
   0.0010   0.1367   0.0341   0.0010   0.0006   0.0004   0.0503   0.0123
   0.0004
~~~~~~~~~~~~~~~~~~~~~~~~~~~~~~~~~~~~~~~~~~~~~~~~~~~~~~~~~~~~~~~~~~~~~~~~~~~~~~~~
 WANNIER NUMBER   46 ATOMIC EXTENT  1.1514
 CENTROID'S COORDINATES R0:   -0.39751E+01   -0.49734E+01   -0.37555E+01
 EXPECTATION VALUE OF (R-R0)**2:  0.17126E+01
 SECOND ORDER TENSOR IN CARTESIAN AXES:
         X             Y             Z
 X  0.45809E+00 -0.12893E-02 -0.10167E-02
 Y -0.12893E-02  0.64290E+00  0.16263E+00
 Z -0.10167E-02  0.16263E+00  0.61165E+00
 TENSOR EIGENVALUES:
 A  0.45808E+00  B  0.79067E+00  C  0.46390E+00
 PRINCIPAL AXES:
         X             Y             Z
 A  0.99979E+00  0.16875E-01 -0.11251E-01
 B -0.49252E-02  0.74013E+00  0.67244E+00
 C  0.19674E-01 -0.67225E+00  0.74007E+00
 BONDING WANNIER FUNCTION BETWEEN ATOMS:
 A:   5 F (  0  0  0) X -0.397391E+01 Y -0.542892E+01 Z -0.416795E+01 (AU)
 B:   3 ZN(  0  0  0) X -0.397391E+01 Y -0.245299E+01 Z -0.180678E+01 (AU)
 DISTANCE OF THE CENTROID FROM THE ATOMS A,B AND FROM THE A-B BOND:
  0.61452E+00  0.31859E+01  0.40029E-01
 POLARISATION FRACTION (0: COVALENT; 1: VERY IONIC)  0.67716E+00
 ATOMIC POPULATION DATA:
  3 ZN(  0  0  0)  0.0696   5 F (  0  0  0)  0.9293
 A.O. POPULATIONS OF ATOM    3(  0  0  0):
  -0.0000   0.0000   0.0008  -0.0015   0.0025   0.0299  -0.0000   0.0210
   0.0138  -0.0000  -0.0000  -0.0000   0.0000   0.0005   0.0003  -0.0000
   0.0000  -0.0000   0.0000   0.0000   0.0003   0.0001   0.0000   0.0000
   0.0000  -0.0002  -0.0001   0.0000   0.0000   0.0000   0.0015   0.0007
   0.0000
 A.O. POPULATIONS OF ATOM    5(  0  0  0):
   0.0012  -0.0065   0.0557   0.1002   0.0597   0.0000   0.1250   0.1094
   0.0000   0.1201   0.1046   0.0000   0.1393   0.1207   0.0000  -0.0000
   0.0001   0.0000   0.0000
~~~~~~~~~~~~~~~~~~~~~~~~~~~~~~~~~~~~~~~~~~~~~~~~~~~~~~~~~~~~~~~~~~~~~~~~~~~~~~~~
 WANNIER NUMBER   47 ATOMIC EXTENT  1.0000
 CENTROID'S COORDINATES R0:   -0.39874E+01   -0.24855E+01   -0.19027E+01
 EXPECTATION VALUE OF (R-R0)**2:  0.41858E-01
 SECOND ORDER TENSOR IN CARTESIAN AXES:
         X             Y             Z
 X  0.12562E-01  0.16935E-03  0.52469E-03
 Y  0.16935E-03  0.12961E-01  0.13153E-02
 Z  0.52469E-03  0.13153E-02  0.16335E-01
 TENSOR EIGENVALUES:
 A  0.12487E-01  B  0.12514E-01  C  0.16858E-01
 PRINCIPAL AXES:
         X             Y             Z
 A  0.90011E+00  0.35977E+00 -0.24569E+00
 B -0.41665E+00  0.87566E+00 -0.24420E+00
 C  0.12728E+00  0.32217E+00  0.93809E+00
 NON BONDING WANNIER FUNCTION
 DISTANCE CENTROID-ATOM    3(  0  0  0) :   0.10216E+00
 ATOMIC POPULATION DATA:
  3 ZN(  0  0  0)  1.0000
 A.O. POPULATIONS OF ATOM    3(  0  0  0):
  -0.0063   0.2658  -0.0035  -0.0062   0.0003  -0.0001  -0.0000  -0.0000
  -0.0000   0.0135   0.0779   0.6793  -0.0004  -0.0021  -0.0183   0.0000
   0.0000   0.0001   0.0000   0.0000   0.0000   0.0000   0.0000   0.0000
   0.0000   0.0000   0.0000   0.0000   0.0000   0.0000   0.0000   0.0000
   0.0000
~~~~~~~~~~~~~~~~~~~~~~~~~~~~~~~~~~~~~~~~~~~~~~~~~~~~~~~~~~~~~~~~~~~~~~~~~~~~~~~~
 WANNIER NUMBER   48 ATOMIC EXTENT  0.9951
 CENTROID'S COORDINATES R0:   -0.39318E+01    0.22949E+01    0.33017E+01
 EXPECTATION VALUE OF (R-R0)**2:  0.63343E+00
 SECOND ORDER TENSOR IN CARTESIAN AXES:
         X             Y             Z
 X  0.15724E+00  0.12316E-01 -0.18923E-01
 Y  0.12316E-01  0.18167E+00  0.50392E-01
 Z -0.18923E-01  0.50392E-01  0.29452E+00
 TENSOR EIGENVALUES:
 A  0.14081E+00  B  0.17773E+00  C  0.31488E+00
 PRINCIPAL AXES:
         X             Y             Z
 A  0.76298E+00 -0.58056E+00  0.28427E+00
 B  0.64079E+00  0.73721E+00 -0.21426E+00
 C -0.85171E-01  0.34563E+00  0.93450E+00
 NON BONDING WANNIER FUNCTION
 DISTANCE CENTROID-ATOM    4(  0  0  0) :   0.46294E+00
 ATOMIC POPULATION DATA:
  4 ZN(  0  0  0)  1.0025
 A.O. POPULATIONS OF ATOM    4(  0  0  0):
  -0.0000  -0.0038   0.0604   0.0425   0.0011  -0.0003  -0.0000   0.0003
   0.0003  -0.0001  -0.0011  -0.0081   0.0021   0.0284   0.2180   0.0005
   0.0071   0.0546   0.2151   0.0028   0.0995   0.0013   0.0118   0.1284
   0.0017   0.0587   0.0008   0.0071   0.0487   0.0007   0.0209   0.0002
   0.0028
~~~~~~~~~~~~~~~~~~~~~~~~~~~~~~~~~~~~~~~~~~~~~~~~~~~~~~~~~~~~~~~~~~~~~~~~~~~~~~~~
 WANNIER NUMBER   49 ATOMIC EXTENT  1.0322
 CENTROID'S COORDINATES R0:   -0.35199E+01   -0.53603E+01   -0.44785E+01
 EXPECTATION VALUE OF (R-R0)**2:  0.16687E+01
 SECOND ORDER TENSOR IN CARTESIAN AXES:
         X             Y             Z
 X  0.68227E+00  0.44068E-01 -0.19146E+00
 Y  0.44068E-01  0.43288E+00 -0.41754E-01
 Z -0.19146E+00 -0.41754E-01  0.55351E+00
 TENSOR EIGENVALUES:
 A  0.82902E+00  B  0.42881E+00  C  0.41082E+00
 PRINCIPAL AXES:
         X             Y             Z
 A  0.80106E+00  0.15019E+00 -0.57944E+00
 B -0.41440E+00  0.83766E+00 -0.35579E+00
 C  0.43194E+00  0.52513E+00  0.73326E+00
 NON BONDING WANNIER FUNCTION
 DISTANCE CENTROID-ATOM    5(  0  0  0) :   0.55432E+00
 ATOMIC POPULATION DATA:
  5 F (  0  0  0)  0.9842   2 BA(  0  0 -1)  0.0111
 A.O. POPULATIONS OF ATOM    5(  0  0  0):
   0.0013  -0.0080   0.0697   0.1073   0.0862   0.1623   0.0026   0.0771
   0.1539   0.0022   0.0729   0.1725   0.0024   0.0817   0.0000   0.0000
   0.0000  -0.0000   0.0000
 A.O. POPULATIONS OF ATOM    2(  0  0 -1):
  -0.0000  -0.0014   0.0054  -0.0008  -0.0000  -0.0004  -0.0004  -0.0001
  -0.0002   0.0000   0.0003   0.0001   0.0001   0.0001   0.0000   0.0045
   0.0008   0.0015   0.0015
~~~~~~~~~~~~~~~~~~~~~~~~~~~~~~~~~~~~~~~~~~~~~~~~~~~~~~~~~~~~~~~~~~~~~~~~~~~~~~~~
 WANNIER NUMBER   50 ATOMIC EXTENT  0.9985
 CENTROID'S COORDINATES R0:   -0.39487E+01    0.19641E+01    0.37290E+01
 EXPECTATION VALUE OF (R-R0)**2:  0.59740E+00
 SECOND ORDER TENSOR IN CARTESIAN AXES:
         X             Y             Z
 X  0.14210E+00 -0.86633E-02  0.77110E-02
 Y -0.86633E-02  0.28185E+00  0.22153E-03
 Z  0.77110E-02  0.22153E-03  0.17345E+00
 TENSOR EIGENVALUES:
 A  0.13980E+00  B  0.28238E+00  C  0.17522E+00
 PRINCIPAL AXES:
         X             Y             Z
 A  0.97291E+00  0.59686E-01 -0.22334E+00
 B -0.61768E-01  0.99809E+00 -0.23427E-02
 C  0.22277E+00  0.16074E-01  0.97474E+00
 NON BONDING WANNIER FUNCTION
 DISTANCE CENTROID-ATOM    4(  0  0  0) :   0.48961E+00
 ATOMIC POPULATION DATA:
  4 ZN(  0  0  0)  1.0007
 A.O. POPULATIONS OF ATOM    4(  0  0  0):
  -0.0001  -0.0043   0.0711   0.0504   0.0011  -0.0005   0.0000   0.0007
   0.0001  -0.0000  -0.0102  -0.0000   0.0013   0.2831   0.0001   0.0003
   0.0710   0.0000   0.1030   0.0018   0.0001   0.1861   0.0018   0.0620
   0.0011   0.0001   0.1112   0.0011   0.0249   0.0004   0.0001   0.0424
   0.0004
~~~~~~~~~~~~~~~~~~~~~~~~~~~~~~~~~~~~~~~~~~~~~~~~~~~~~~~~~~~~~~~~~~~~~~~~~~~~~~~~
 WANNIER NUMBER   51 ATOMIC EXTENT  0.9974
 CENTROID'S COORDINATES R0:   -0.35056E+01    0.24783E+01    0.35850E+01
 EXPECTATION VALUE OF (R-R0)**2:  0.58612E+00
 SECOND ORDER TENSOR IN CARTESIAN AXES:
         X             Y             Z
 X  0.27989E+00  0.65384E-02 -0.36678E-01
 Y  0.65384E-02  0.13429E+00 -0.20687E-02
 Z -0.36678E-01 -0.20687E-02  0.17194E+00
 TENSOR EIGENVALUES:
 A  0.29147E+00  B  0.13399E+00  C  0.16066E+00
 PRINCIPAL AXES:
         X             Y             Z
 A  0.95489E+00  0.43585E-01 -0.29374E+00
 B -0.41054E-01  0.99905E+00  0.14780E-01
 C  0.29411E+00 -0.20545E-02  0.95577E+00
 NON BONDING WANNIER FUNCTION
 DISTANCE CENTROID-ATOM    4(  0  0  0) :   0.49232E+00
 ATOMIC POPULATION DATA:
  4 ZN(  0  0  0)  1.0013
 A.O. POPULATIONS OF ATOM    4(  0  0  0):
  -0.0001  -0.0042   0.0682   0.0485   0.0017   0.0016   0.0005   0.0000
   0.0001  -0.0093  -0.0000  -0.0010   0.2602   0.0002   0.0269   0.0650
   0.0001   0.0067   0.0636   0.0840   0.0003   0.1445   0.0019   0.0378
   0.0505   0.0002   0.0859   0.0012   0.0139   0.0202   0.0001   0.0315
   0.0005
~~~~~~~~~~~~~~~~~~~~~~~~~~~~~~~~~~~~~~~~~~~~~~~~~~~~~~~~~~~~~~~~~~~~~~~~~~~~~~~~
 WANNIER NUMBER   52 ATOMIC EXTENT  0.9985
 CENTROID'S COORDINATES R0:   -0.44113E+01    0.23138E+01    0.35581E+01
 EXPECTATION VALUE OF (R-R0)**2:  0.58998E+00
 SECOND ORDER TENSOR IN CARTESIAN AXES:
         X             Y             Z
 X  0.26667E+00  0.29122E-01  0.39909E-01
 Y  0.29122E-01  0.15518E+00  0.25869E-01
 Z  0.39909E-01  0.25869E-01  0.16812E+00
 TENSOR EIGENVALUES:
 A  0.29054E+00  B  0.13496E+00  C  0.16448E+00
 PRINCIPAL AXES:
         X             Y             Z
 A  0.90041E+00  0.26033E+00  0.34855E+00
 B  0.18618E-01  0.77740E+00 -0.62873E+00
 C -0.43464E+00  0.57261E+00  0.69513E+00
 NON BONDING WANNIER FUNCTION
 DISTANCE CENTROID-ATOM    4(  0  0  0) :   0.49190E+00
 ATOMIC POPULATION DATA:
  4 ZN(  0  0  0)  1.0008
 A.O. POPULATIONS OF ATOM    4(  0  0  0):
  -0.0001  -0.0043   0.0689   0.0489   0.0016   0.0012   0.0001  -0.0000
   0.0001  -0.0082  -0.0008  -0.0014   0.2280   0.0215   0.0397   0.0570
   0.0053   0.0100   0.0280   0.1000   0.0010   0.0990   0.0639   0.0166
   0.0601   0.0006   0.0588   0.0384   0.0060   0.0239   0.0002   0.0215
   0.0151
~~~~~~~~~~~~~~~~~~~~~~~~~~~~~~~~~~~~~~~~~~~~~~~~~~~~~~~~~~~~~~~~~~~~~~~~~~~~~~~~
 WANNIER NUMBER   53 ATOMIC EXTENT  1.0297
 CENTROID'S COORDINATES R0:   -0.44113E+01   -0.89728E+00   -0.54391E+01
 EXPECTATION VALUE OF (R-R0)**2:  0.15856E+01
 SECOND ORDER TENSOR IN CARTESIAN AXES:
         X             Y             Z
 X  0.62677E+00  0.14804E+00  0.10390E+00
 Y  0.14804E+00  0.50685E+00  0.55639E-01
 Z  0.10390E+00  0.55639E-01  0.45198E+00
 TENSOR EIGENVALUES:
 A  0.76984E+00  B  0.39666E+00  C  0.41909E+00
 PRINCIPAL AXES:
         X             Y             Z
 A  0.78423E+00  0.51474E+00  0.34645E+00
 B -0.59854E+00  0.48047E+00  0.64101E+00
 C  0.16349E+00 -0.71007E+00  0.68489E+00
 NON BONDING WANNIER FUNCTION
 DISTANCE CENTROID-ATOM   11(  0  0  0) :   0.53969E+00
 ATOMIC POPULATION DATA:
 11 F (  0  0  0)  0.9855
 A.O. POPULATIONS OF ATOM   11(  0  0  0):
   0.0011  -0.0077   0.0663   0.1054   0.0792   0.1584   0.0518   0.0314
   0.1553   0.0497   0.0306   0.1742   0.0554   0.0343   0.0000   0.0000
   0.0000  -0.0000   0.0000
~~~~~~~~~~~~~~~~~~~~~~~~~~~~~~~~~~~~~~~~~~~~~~~~~~~~~~~~~~~~~~~~~~~~~~~~~~~~~~~~
 WANNIER NUMBER   54 ATOMIC EXTENT  1.1197
 CENTROID'S COORDINATES R0:   -0.46580E+00   -0.23345E+01   -0.16741E+01
 EXPECTATION VALUE OF (R-R0)**2:  0.17101E+01
 SECOND ORDER TENSOR IN CARTESIAN AXES:
         X             Y             Z
 X  0.73899E+00  0.85705E-01 -0.12536E+00
 Y  0.85705E-01  0.45936E+00 -0.39135E-01
 Z -0.12536E+00 -0.39135E-01  0.51175E+00
 TENSOR EIGENVALUES:
 A  0.81922E+00  B  0.43465E+00  C  0.45623E+00
 PRINCIPAL AXES:
         X             Y             Z
 A  0.88411E+00  0.25327E+00 -0.39269E+00
 B -0.21220E+00  0.96634E+00  0.14548E+00
 C  0.41631E+00 -0.45291E-01  0.90809E+00
 BONDING WANNIER FUNCTION BETWEEN ATOMS:
 A:  10 F (  0  0  0) X  0.235350E-16 Y -0.215146E+01 Z -0.193413E+01 (AU)
 B:   3 ZN(  0  0  0) X -0.397391E+01 Y -0.245299E+01 Z -0.180678E+01 (AU)
 DISTANCE OF THE CENTROID FROM THE ATOMS A,B AND FROM THE A-B BOND:
  0.56400E+00  0.35126E+01  0.28554E+00
 POLARISATION FRACTION (0: COVALENT; 1: VERY IONIC)  0.75604E+00
 ATOMIC POPULATION DATA:
  3 ZN(  0  0  0)  0.0465  10 F (  0  0  0)  0.9438
 A.O. POPULATIONS OF ATOM    3(  0  0  0):
  -0.0000  -0.0000   0.0004  -0.0007   0.0007   0.0179   0.0259   0.0000
   0.0003  -0.0000  -0.0000  -0.0000   0.0005   0.0000   0.0000  -0.0001
   0.0000  -0.0000   0.0001   0.0000   0.0000   0.0002   0.0000  -0.0000
  -0.0000   0.0000  -0.0001   0.0000   0.0003   0.0001  -0.0000   0.0011
  -0.0000
 A.O. POPULATIONS OF ATOM   10(  0  0  0):
   0.0015  -0.0078   0.0678   0.1146   0.0757   0.1435   0.0252   0.0549
   0.1403   0.0245   0.0527   0.1650   0.0273   0.0586   0.0000   0.0000
   0.0000   0.0000   0.0000
~~~~~~~~~~~~~~~~~~~~~~~~~~~~~~~~~~~~~~~~~~~~~~~~~~~~~~~~~~~~~~~~~~~~~~~~~~~~~~~~
 WANNIER NUMBER   55 ATOMIC EXTENT  1.0343
[...]
   0.0000   0.0946   0.1276   0.0000   0.1095   0.1480   0.0000   0.0000
   0.0001   0.0000   0.0000
 A.O. POPULATIONS OF ATOM    4(  0  0 -1):
  -0.0000   0.0001   0.0002  -0.0025   0.0056   0.0264   0.0000   0.0123
   0.0244  -0.0000   0.0000   0.0000   0.0000   0.0001   0.0002   0.0000
   0.0001   0.0001   0.0002   0.0000   0.0008   0.0000   0.0000  -0.0000
  -0.0000  -0.0002  -0.0000   0.0000   0.0003   0.0000   0.0007   0.0002
   0.0000
~~~~~~~~~~~~~~~~~~~~~~~~~~~~~~~~~~~~~~~~~~~~~~~~~~~~~~~~~~~~~~~~~~~~~~~~~~~~~~~~
 WANNIER NUMBER   62 ATOMIC EXTENT  1.0359
 CENTROID'S COORDINATES R0:   -0.35211E+01   -0.46708E+01    0.14450E+01
 EXPECTATION VALUE OF (R-R0)**2:  0.16259E+01
 SECOND ORDER TENSOR IN CARTESIAN AXES:
         X             Y             Z
 X  0.66529E+00  0.35742E-01  0.17631E+00
 Y  0.35742E-01  0.41370E+00  0.26769E-01
 Z  0.17631E+00  0.26769E-01  0.54688E+00
 TENSOR EIGENVALUES:
 A  0.79727E+00  B  0.40844E+00  C  0.42017E+00
 PRINCIPAL AXES:
         X             Y             Z
 A  0.80629E+00  0.11562E+00  0.58011E+00
 B -0.50619E-01  0.99060E+00 -0.12707E+00
 C -0.58935E+00  0.73092E-01  0.80456E+00
 NON BONDING WANNIER FUNCTION
 DISTANCE CENTROID-ATOM    7(  0  0  0) :   0.55207E+00
 ATOMIC POPULATION DATA:
  2 BA(  0  0  0)  0.0126   7 F (  0  0  0)  0.9824
 A.O. POPULATIONS OF ATOM    2(  0  0  0):
   0.0000  -0.0014   0.0056  -0.0005  -0.0000  -0.0003  -0.0007  -0.0000
  -0.0004   0.0000   0.0005   0.0000   0.0002   0.0000   0.0000   0.0063
   0.0002   0.0027   0.0003
 A.O. POPULATIONS OF ATOM    7(  0  0  0):
   0.0013  -0.0079   0.0694   0.1067   0.0867   0.1623   0.0058   0.0732
   0.1543   0.0052   0.0688   0.1735   0.0058   0.0774   0.0000  -0.0000
   0.0000  -0.0000   0.0000
~~~~~~~~~~~~~~~~~~~~~~~~~~~~~~~~~~~~~~~~~~~~~~~~~~~~~~~~~~~~~~~~~~~~~~~~~~~~~~~~
 WANNIER NUMBER   63 ATOMIC EXTENT  0.9989
 CENTROID'S COORDINATES R0:   -0.36844E+01   -0.26695E+01   -0.20935E+01
 EXPECTATION VALUE OF (R-R0)**2:  0.64947E+00
 SECOND ORDER TENSOR IN CARTESIAN AXES:
         X             Y             Z
 X  0.23132E+00 -0.31992E-01 -0.66247E-01
 Y -0.31992E-01  0.20555E+00  0.56484E-01
 Z -0.66247E-01  0.56484E-01  0.21260E+00
 TENSOR EIGENVALUES:
 A  0.32186E+00  B  0.18509E+00  C  0.14252E+00
 PRINCIPAL AXES:
         X             Y             Z
 A  0.62292E+00 -0.47367E+00 -0.62258E+00
 B  0.67181E+00  0.73166E+00  0.11553E+00
 C  0.40079E+00 -0.49022E+00  0.77398E+00
 NON BONDING WANNIER FUNCTION
 DISTANCE CENTROID-ATOM    3(  0  0  0) :   0.46141E+00
 ATOMIC POPULATION DATA:
  3 ZN(  0  0  0)  1.0006
 A.O. POPULATIONS OF ATOM    3(  0  0  0):
  -0.0000  -0.0037   0.0594   0.0419   0.0013  -0.0000   0.0005   0.0003
  -0.0000  -0.0036  -0.0020  -0.0035   0.0962   0.0545   0.0978   0.0241
   0.0137   0.0242   0.0076   0.1269   0.0628   0.0080   0.1215   0.0046
   0.0762   0.0372   0.0048   0.0730   0.0020   0.0304   0.0138   0.0019
   0.0290
~~~~~~~~~~~~~~~~~~~~~~~~~~~~~~~~~~~~~~~~~~~~~~~~~~~~~~~~~~~~~~~~~~~~~~~~~~~~~~~~
 WANNIER NUMBER   64 ATOMIC EXTENT  1.0323
 CENTROID'S COORDINATES R0:   -0.44276E+01    0.53599E+01    0.10611E+01
 EXPECTATION VALUE OF (R-R0)**2:  0.16661E+01
 SECOND ORDER TENSOR IN CARTESIAN AXES:
         X             Y             Z
 X  0.67877E+00  0.44195E-01  0.19185E+00
 Y  0.44195E-01  0.43330E+00  0.41900E-01
 Z  0.19185E+00  0.41900E-01  0.55401E+00
 TENSOR EIGENVALUES:
 A  0.82738E+00  B  0.42848E+00  C  0.41021E+00
 PRINCIPAL AXES:
         X             Y             Z
 A  0.79802E+00  0.15151E+00  0.58327E+00
 B -0.39741E+00  0.85990E+00  0.32037E+00
 C -0.45302E+00 -0.48746E+00  0.74643E+00
 NON BONDING WANNIER FUNCTION
 DISTANCE CENTROID-ATOM    6(  0  0  0) :   0.55526E+00
 ATOMIC POPULATION DATA:
  6 F (  0  0  0)  0.9842   1 BA( -1  1  0)  0.0111
 A.O. POPULATIONS OF ATOM    6(  0  0  0):
   0.0013  -0.0080   0.0699   0.1077   0.0866   0.1612   0.0026   0.0779
   0.1529   0.0022   0.0736   0.1714   0.0025   0.0824   0.0000   0.0000
   0.0000  -0.0000   0.0000
 A.O. POPULATIONS OF ATOM    1( -1  1  0):
  -0.0000  -0.0014   0.0054  -0.0008  -0.0000  -0.0004  -0.0004  -0.0001
  -0.0002   0.0000   0.0003   0.0001   0.0001   0.0001   0.0000   0.0045
   0.0008   0.0015   0.0015
~~~~~~~~~~~~~~~~~~~~~~~~~~~~~~~~~~~~~~~~~~~~~~~~~~~~~~~~~~~~~~~~~~~~~~~~~~~~~~~~
 WANNIER NUMBER   65 ATOMIC EXTENT  1.0358
 CENTROID'S COORDINATES R0:   -0.35212E+01    0.46706E+01   -0.40972E+01
 EXPECTATION VALUE OF (R-R0)**2:  0.16262E+01
 SECOND ORDER TENSOR IN CARTESIAN AXES:
         X             Y             Z
 X  0.66595E+00 -0.35779E-01  0.17673E+00
 Y -0.35779E-01  0.41386E+00 -0.26439E-01
 Z  0.17673E+00 -0.26439E-01  0.54638E+00
 TENSOR EIGENVALUES:
 A  0.79789E+00  B  0.40867E+00  C  0.41964E+00
 PRINCIPAL AXES:
         X             Y             Z
 A  0.80703E+00 -0.11506E+00  0.57918E+00
 B  0.60180E-01  0.99175E+00  0.11317E+00
 C -0.58743E+00 -0.56479E-01  0.80730E+00
 NON BONDING WANNIER FUNCTION
 DISTANCE CENTROID-ATOM    8(  0  0  0) :   0.55172E+00
 ATOMIC POPULATION DATA:
  1 BA(  0  0  0)  0.0126   8 F (  0  0  0)  0.9825
 A.O. POPULATIONS OF ATOM    1(  0  0  0):
   0.0000  -0.0014   0.0056  -0.0005  -0.0000  -0.0003  -0.0007  -0.0000
  -0.0004   0.0000   0.0005   0.0000   0.0002   0.0000   0.0000   0.0063
   0.0002   0.0027   0.0003
 A.O. POPULATIONS OF ATOM    8(  0  0  0):
   0.0013  -0.0079   0.0693   0.1066   0.0866   0.1626   0.0058   0.0731
   0.1546   0.0052   0.0686   0.1738   0.0058   0.0773   0.0000  -0.0000
   0.0000  -0.0000   0.0000
~~~~~~~~~~~~~~~~~~~~~~~~~~~~~~~~~~~~~~~~~~~~~~~~~~~~~~~~~~~~~~~~~~~~~~~~~~~~~~~~
 WANNIER NUMBER   66 ATOMIC EXTENT  1.0265
 CENTROID'S COORDINATES R0:   -0.19085E-02   -0.16161E+01   -0.19523E+01
 EXPECTATION VALUE OF (R-R0)**2:  0.15306E+01
 SECOND ORDER TENSOR IN CARTESIAN AXES:
         X             Y             Z
 X  0.42267E+00 -0.12374E-02  0.10505E-03
 Y -0.12374E-02  0.70393E+00  0.12504E-02
 Z  0.10505E-03  0.12504E-02  0.40399E+00
 TENSOR EIGENVALUES:
 A  0.42267E+00  B  0.70394E+00  C  0.40398E+00
 PRINCIPAL AXES:
         X             Y             Z
 A  0.99997E+00  0.43729E-02  0.59176E-02
 B -0.43976E-02  0.99998E+00  0.41671E-02
 C -0.58992E-02 -0.41930E-02  0.99997E+00
 NON BONDING WANNIER FUNCTION
 DISTANCE CENTROID-ATOM   10(  0  0  0) :   0.53572E+00
 ATOMIC POPULATION DATA:
 10 F (  0  0  0)  0.9870
 A.O. POPULATIONS OF ATOM   10(  0  0  0):
   0.0011  -0.0079   0.0670   0.1079   0.0776   0.0000   0.2437   0.0002
   0.0000   0.2355   0.0002   0.0000   0.2613   0.0002   0.0000  -0.0000
   0.0000   0.0000   0.0000
~~~~~~~~~~~~~~~~~~~~~~~~~~~~~~~~~~~~~~~~~~~~~~~~~~~~~~~~~~~~~~~~~~~~~~~~~~~~~~~~
 WANNIER NUMBER   67 ATOMIC EXTENT  1.0336
 CENTROID'S COORDINATES R0:   -0.35233E+01    0.53649E+01    0.10656E+01
 EXPECTATION VALUE OF (R-R0)**2:  0.16249E+01
 SECOND ORDER TENSOR IN CARTESIAN AXES:
         X             Y             Z
 X  0.65605E+00 -0.30574E-01 -0.17152E+00
 Y -0.30574E-01  0.42924E+00  0.32004E-01
 Z -0.17152E+00  0.32004E-01  0.53966E+00
 TENSOR EIGENVALUES:
 A  0.78431E+00  B  0.42922E+00  C  0.41142E+00
 PRINCIPAL AXES:
         X             Y             Z
 A  0.80518E+00 -0.12165E+00 -0.58042E+00
 B  0.40207E+00  0.83142E+00  0.38351E+00
 C  0.43592E+00 -0.54216E+00  0.71836E+00
 NON BONDING WANNIER FUNCTION
 DISTANCE CENTROID-ATOM    6(  0  0  0) :   0.54959E+00
 ATOMIC POPULATION DATA:
  1 BA(  0  0  0)  0.0118   6 F (  0  0  0)  0.9835
 A.O. POPULATIONS OF ATOM    1(  0  0  0):
   0.0000  -0.0011   0.0051  -0.0003   0.0001  -0.0001  -0.0005  -0.0001
  -0.0003   0.0000   0.0003   0.0001   0.0001   0.0001   0.0000   0.0045
   0.0008   0.0015   0.0015
 A.O. POPULATIONS OF ATOM    6(  0  0  0):
   0.0013  -0.0079   0.0690   0.1063   0.0857   0.1633   0.0023   0.0776
   0.1541   0.0019   0.0730   0.1729   0.0021   0.0819   0.0000   0.0000
   0.0000  -0.0000   0.0000
~~~~~~~~~~~~~~~~~~~~~~~~~~~~~~~~~~~~~~~~~~~~~~~~~~~~~~~~~~~~~~~~~~~~~~~~~~~~~~~~
 WANNIER NUMBER   68 ATOMIC EXTENT  1.0265
 CENTROID'S COORDINATES R0:   -0.18589E-02    0.16156E+01    0.35883E+01
 EXPECTATION VALUE OF (R-R0)**2:  0.15293E+01
 SECOND ORDER TENSOR IN CARTESIAN AXES:
         X             Y             Z
 X  0.42289E+00  0.13018E-02  0.11073E-03
 Y  0.13018E-02  0.70257E+00  0.32399E-04
 Z  0.11073E-03  0.32399E-04  0.40381E+00
 TENSOR EIGENVALUES:
 A  0.42289E+00  B  0.70258E+00  C  0.40381E+00
 PRINCIPAL AXES:
         X             Y             Z
 A  0.99997E+00 -0.46550E-02  0.57960E-02
 B  0.46545E-02  0.99999E+00  0.11016E-03
 C -0.57964E-02 -0.83185E-04  0.99998E+00
 NON BONDING WANNIER FUNCTION
 DISTANCE CENTROID-ATOM    9(  0  0  0) :   0.53626E+00
 ATOMIC POPULATION DATA:
  9 F (  0  0  0)  0.9870
 A.O. POPULATIONS OF ATOM    9(  0  0  0):
   0.0011  -0.0079   0.0672   0.1081   0.0778   0.0000   0.2435   0.0003
   0.0000   0.2352   0.0003   0.0000   0.2611   0.0003   0.0000   0.0000
   0.0000   0.0000   0.0000
~~~~~~~~~~~~~~~~~~~~~~~~~~~~~~~~~~~~~~~~~~~~~~~~~~~~~~~~~~~~~~~~~~~~~~~~~~~~~~~~
 WANNIER NUMBER   69 ATOMIC EXTENT  1.0306
 CENTROID'S COORDINATES R0:   -0.35357E+01    0.89137E+00    0.10328E+00
 EXPECTATION VALUE OF (R-R0)**2:  0.15588E+01
 SECOND ORDER TENSOR IN CARTESIAN AXES:
         X             Y             Z
 X  0.61555E+00  0.13385E+00 -0.98782E-01
 Y  0.13385E+00  0.49304E+00 -0.49986E-01
 Z -0.98782E-01 -0.49986E-01  0.45016E+00
 TENSOR EIGENVALUES:
 A  0.74297E+00  B  0.39727E+00  C  0.41851E+00
 PRINCIPAL AXES:
         X             Y             Z
 A  0.79383E+00  0.49562E+00 -0.35242E+00
 B -0.59125E+00  0.49334E+00 -0.63799E+00
 C -0.14234E+00  0.71483E+00  0.68466E+00
 NON BONDING WANNIER FUNCTION
 DISTANCE CENTROID-ATOM   12(  0  0  0) :   0.53734E+00
 ATOMIC POPULATION DATA:
 12 F (  0  0  0)  0.9850
 A.O. POPULATIONS OF ATOM   12(  0  0  0):
   0.0011  -0.0077   0.0659   0.1049   0.0789   0.1607   0.0501   0.0315
   0.1572   0.0479   0.0306   0.1763   0.0534   0.0343   0.0000   0.0000
   0.0000  -0.0000  -0.0000
~~~~~~~~~~~~~~~~~~~~~~~~~~~~~~~~~~~~~~~~~~~~~~~~~~~~~~~~~~~~~~~~~~~~~~~~~~~~~~~~
 WANNIER NUMBER   70 ATOMIC EXTENT  1.0434
 CENTROID'S COORDINATES R0:   -0.75805E-02    0.23471E+01    0.30962E+01
 EXPECTATION VALUE OF (R-R0)**2:  0.16157E+01
 SECOND ORDER TENSOR IN CARTESIAN AXES:
         X             Y             Z
 X  0.42797E+00 -0.18344E-02  0.44669E-02
 Y -0.18344E-02  0.44464E+00 -0.11425E+00
 Z  0.44669E-02 -0.11425E+00  0.74308E+00
 TENSOR EIGENVALUES:
 A  0.42791E+00  B  0.40592E+00  C  0.78187E+00
 PRINCIPAL AXES:
         X             Y             Z
 A  0.99981E+00 -0.87178E-02 -0.17330E-01
 B  0.13817E-01  0.94707E+00  0.32074E+00
 C  0.13617E-01 -0.32092E+00  0.94701E+00
 ATOMIC POPULATION DATA:
  9 F (  0  0  0)  0.9789
 A.O. POPULATIONS OF ATOM    9(  0  0  0):
   0.0011  -0.0074   0.0631   0.1026   0.0748   0.0000   0.0302   0.2170
   0.0000   0.0288   0.2061   0.0001   0.0323   0.2302   0.0000   0.0000
   0.0000   0.0000   0.0000
~~~~~~~~~~~~~~~~~~~~~~~~~~~~~~~~~~~~~~~~~~~~~~~~~~~~~~~~~~~~~~~~~~~~~~~~~~~~~~~~
 WANNIER NUMBER   71 ATOMIC EXTENT  1.1206
 CENTROID'S COORDINATES R0:    0.47224E+00   -0.23312E+01   -0.16808E+01
 EXPECTATION VALUE OF (R-R0)**2:  0.17274E+01
 SECOND ORDER TENSOR IN CARTESIAN AXES:
         X             Y             Z
 X  0.75552E+00 -0.84192E-01  0.12292E+00
 Y -0.84192E-01  0.46094E+00 -0.36912E-01
 Z  0.12292E+00 -0.36912E-01  0.51097E+00
 TENSOR EIGENVALUES:
 A  0.82955E+00  B  0.43789E+00  C  0.45999E+00
 PRINCIPAL AXES:
         X             Y             Z
 A  0.89550E+00 -0.24194E+00  0.37356E+00
 B  0.19286E+00  0.96739E+00  0.16421E+00
 C -0.40111E+00 -0.75006E-01  0.91295E+00
 BONDING WANNIER FUNCTION BETWEEN ATOMS:
 A:  10 F (  0  0  0) X  0.235350E-16 Y -0.215146E+01 Z -0.193413E+01 (AU)
 B:   3 ZN(  1 -1  0) X  0.397391E+01 Y -0.245299E+01 Z -0.180678E+01 (AU)
 DISTANCE OF THE CENTROID FROM THE ATOMS A,B AND FROM THE A-B BOND:
  0.56525E+00  0.35061E+01  0.27770E+00
 POLARISATION FRACTION (0: COVALENT; 1: VERY IONIC)  0.75306E+00
 ATOMIC POPULATION DATA:
 10 F (  0  0  0)  0.9435   3 ZN(  1 -1  0)  0.0468
 A.O. POPULATIONS OF ATOM   10(  0  0  0):
   0.0015  -0.0078   0.0679   0.1148   0.0759   0.1465   0.0243   0.0522
   0.1437   0.0236   0.0501   0.1688   0.0263   0.0557   0.0000   0.0000
   0.0000   0.0000   0.0000
 A.O. POPULATIONS OF ATOM    3(  1 -1  0):
  -0.0000   0.0000   0.0001  -0.0009   0.0008   0.0184   0.0262   0.0000
   0.0003   0.0000  -0.0000   0.0000   0.0002  -0.0000   0.0000   0.0000
   0.0000  -0.0000   0.0002   0.0000   0.0000   0.0006   0.0000  -0.0000
   0.0000   0.0000  -0.0000   0.0000   0.0001   0.0000  -0.0000   0.0006
  -0.0000
~~~~~~~~~~~~~~~~~~~~~~~~~~~~~~~~~~~~~~~~~~~~~~~~~~~~~~~~~~~~~~~~~~~~~~~~~~~~~~~~
 WANNIER NUMBER   72 ATOMIC EXTENT  1.0298
 CENTROID'S COORDINATES R0:   -0.44112E+01    0.89844E+00    0.10137E+00
 EXPECTATION VALUE OF (R-R0)**2:  0.15834E+01
 SECOND ORDER TENSOR IN CARTESIAN AXES:
         X             Y             Z
 X  0.62477E+00 -0.14816E+00  0.10373E+00
 Y -0.14816E+00  0.50662E+00 -0.56025E-01
 Z  0.10373E+00 -0.56025E-01  0.45201E+00
 TENSOR EIGENVALUES:
 A  0.76869E+00  B  0.39620E+00  C  0.41850E+00
 PRINCIPAL AXES:
         X             Y             Z
 A  0.78243E+00 -0.51665E+00  0.34767E+00
 B  0.60324E+00  0.49021E+00 -0.62912E+00
 C  0.15460E+00  0.70198E+00  0.69522E+00
 NON BONDING WANNIER FUNCTION
 DISTANCE CENTROID-ATOM   12(  0  0  0) :   0.54053E+00
 ATOMIC POPULATION DATA:
 12 F (  0  0  0)  0.9854
 A.O. POPULATIONS OF ATOM   12(  0  0  0):
   0.0011  -0.0078   0.0665   0.1057   0.0795   0.1576   0.0520   0.0317
   0.1547   0.0500   0.0309   0.1734   0.0557   0.0345   0.0000   0.0000
   0.0000  -0.0000   0.0000
~~~~~~~~~~~~~~~~~~~~~~~~~~~~~~~~~~~~~~~~~~~~~~~~~~~~~~~~~~~~~~~~~~~~~~~~~~~~~~~~
 WANNIER NUMBER   73 ATOMIC EXTENT  0.9983
 CENTROID'S COORDINATES R0:   -0.42181E+01   -0.26578E+01   -0.21771E+01
 EXPECTATION VALUE OF (R-R0)**2:  0.59301E+00
 SECOND ORDER TENSOR IN CARTESIAN AXES:
         X             Y             Z
 X  0.19245E+00  0.13670E-01  0.49929E-01
 Y  0.13670E-01  0.17794E+00  0.48579E-01
 Z  0.49929E-01  0.48579E-01  0.22262E+00
 TENSOR EIGENVALUES:
 A  0.13932E+00  B  0.17202E+00  C  0.28167E+00
 PRINCIPAL AXES:
         X             Y             Z
 A  0.42905E+00  0.64441E+00 -0.63297E+00
 B -0.75808E+00  0.63791E+00  0.13558E+00
 C  0.49114E+00  0.42167E+00  0.76221E+00
 NON BONDING WANNIER FUNCTION
 DISTANCE CENTROID-ATOM    3(  0  0  0) :   0.48857E+00
 ATOMIC POPULATION DATA:
  3 ZN(  0  0  0)  1.0008
 A.O. POPULATIONS OF ATOM    3(  0  0  0):
  -0.0001  -0.0043   0.0713   0.0503   0.0014  -0.0006   0.0002   0.0002
   0.0000  -0.0025  -0.0017  -0.0061   0.0682   0.0472   0.1712   0.0170
   0.0119   0.0426   0.0462   0.1145   0.0673   0.0003   0.0631   0.0278
   0.0688   0.0399   0.0002   0.0380   0.0111   0.0274   0.0149   0.0001
   0.0151
~~~~~~~~~~~~~~~~~~~~~~~~~~~~~~~~~~~~~~~~~~~~~~~~~~~~~~~~~~~~~~~~~~~~~~~~~~~~~~~~
 WANNIER NUMBER   74 ATOMIC EXTENT  1.0297
 CENTROID'S COORDINATES R0:   -0.35347E+01   -0.89527E+00   -0.54376E+01
 EXPECTATION VALUE OF (R-R0)**2:  0.15858E+01
 SECOND ORDER TENSOR IN CARTESIAN AXES:
         X             Y             Z
 X  0.62805E+00 -0.14794E+00 -0.10368E+00
 Y -0.14794E+00  0.50624E+00  0.55375E-01
 Z -0.10368E+00  0.55375E-01  0.45152E+00
 TENSOR EIGENVALUES:
 A  0.77012E+00  B  0.39685E+00  C  0.41884E+00
 PRINCIPAL AXES:
         X             Y             Z
 A  0.78600E+00 -0.51303E+00 -0.34497E+00
 B  0.59584E+00  0.47980E+00  0.64402E+00
 C -0.16489E+00 -0.71175E+00  0.68281E+00
 NON BONDING WANNIER FUNCTION
 DISTANCE CENTROID-ATOM   11(  0  0  0) :   0.53970E+00
 ATOMIC POPULATION DATA:
 11 F (  0  0  0)  0.9854
 A.O. POPULATIONS OF ATOM   11(  0  0  0):
   0.0011  -0.0078   0.0663   0.1055   0.0792   0.1598   0.0510   0.0309
   0.1566   0.0489   0.0301   0.1756   0.0545   0.0337   0.0000   0.0000
   0.0000  -0.0000   0.0000
~~~~~~~~~~~~~~~~~~~~~~~~~~~~~~~~~~~~~~~~~~~~~~~~~~~~~~~~~~~~~~~~~~~~~~~~~~~~~~~~
 WANNIER NUMBER   75 ATOMIC EXTENT  1.1201
 CENTROID'S COORDINATES R0:   -0.39738E+01    0.69333E+00    0.87285E+00
 EXPECTATION VALUE OF (R-R0)**2:  0.16752E+01
 SECOND ORDER TENSOR IN CARTESIAN AXES:
         X             Y             Z
 X  0.43951E+00 -0.27441E-03 -0.26537E-03
 Y -0.27441E-03  0.45311E+00  0.59246E-01
 Z -0.26537E-03  0.59246E-01  0.78254E+00
 TENSOR EIGENVALUES:
 A  0.43949E+00  B  0.44279E+00  C  0.79287E+00
 PRINCIPAL AXES:
         X             Y             Z
 A  0.99767E+00  0.67390E-01 -0.10867E-01
 B -0.68254E-01  0.98283E+00 -0.17144E+00
 C -0.87321E-03  0.17178E+00  0.98513E+00
 BONDING WANNIER FUNCTION BETWEEN ATOMS:
 A:  12 F (  0  0  0) X -0.397391E+01 Y  0.647945E+00 Z  0.296919E+00 (AU)
 B:   4 ZN(  0  0  0) X -0.397391E+01 Y  0.245299E+01 Z  0.373482E+01 (AU)
 DISTANCE OF THE CENTROID FROM THE ATOMS A,B AND FROM THE A-B BOND:
  0.57772E+00  0.33597E+01  0.22755E+00
 POLARISATION FRACTION (0: COVALENT; 1: VERY IONIC)  0.72649E+00
 ATOMIC POPULATION DATA:
  4 ZN(  0  0  0)  0.0512  12 F (  0  0  0)  0.9435
 A.O. POPULATIONS OF ATOM    4(  0  0  0):
  -0.0000   0.0000   0.0005  -0.0009   0.0012   0.0213   0.0000   0.0085
   0.0182  -0.0000  -0.0000  -0.0000   0.0000   0.0002   0.0004  -0.0000
  -0.0000  -0.0000   0.0000   0.0000   0.0003   0.0000   0.0000  -0.0001
   0.0000  -0.0001  -0.0000   0.0000   0.0005   0.0000   0.0010   0.0001
   0.0000
 A.O. POPULATIONS OF ATOM   12(  0  0  0):
   0.0014  -0.0078   0.0670   0.1167   0.0724   0.0000   0.0002   0.2230
   0.0000   0.0004   0.2178   0.0000   0.0007   0.2517   0.0000   0.0000
   0.0000   0.0000   0.0000
~~~~~~~~~~~~~~~~~~~~~~~~~~~~~~~~~~~~~~~~~~~~~~~~~~~~~~~~~~~~~~~~~~~~~~~~~~~~~~~~
 WANNIER NUMBER   76 ATOMIC EXTENT  0.9957
 CENTROID'S COORDINATES R0:   -0.39499E+01   -0.25258E+01   -0.13526E+01
 EXPECTATION VALUE OF (R-R0)**2:  0.64172E+00
 SECOND ORDER TENSOR IN CARTESIAN AXES:
         X             Y             Z
 X  0.15884E+00  0.17606E-01  0.10561E-01
 Y  0.17606E-01  0.17277E+00 -0.24973E-01
 Z  0.10561E-01 -0.24973E-01  0.31010E+00
 TENSOR EIGENVALUES:
 A  0.14365E+00  B  0.18321E+00  C  0.31486E+00
 PRINCIPAL AXES:
         X             Y             Z
 A  0.78976E+00 -0.59729E+00 -0.13972E+00
 B  0.61155E+00  0.78441E+00  0.10347E+00
 C  0.47799E-01 -0.16717E+00  0.98477E+00
 NON BONDING WANNIER FUNCTION
 DISTANCE CENTROID-ATOM    3(  0  0  0) :   0.46060E+00
 ATOMIC POPULATION DATA:
  3 ZN(  0  0  0)  1.0021
 A.O. POPULATIONS OF ATOM    3(  0  0  0):
  -0.0000  -0.0038   0.0608   0.0426   0.0012  -0.0008   0.0000  -0.0001
   0.0010  -0.0000  -0.0002  -0.0090   0.0006   0.0065   0.2423   0.0002
   0.0016   0.0601   0.2960   0.0014   0.0229   0.0000   0.0084   0.1769
   0.0008   0.0133   0.0000   0.0050   0.0677   0.0003   0.0043   0.0000
   0.0020
~~~~~~~~~~~~~~~~~~~~~~~~~~~~~~~~~~~~~~~~~~~~~~~~~~~~~~~~~~~~~~~~~~~~~~~~~~~~~~~~

 ATOMIC DELOCALISATION INDEX (BEFORE BOYS)     1.025866109    
 NORM        75.9999997572   (ERR PER WF    0.32E-08)
 DIPOLE MOMENT(AU)  0.31791264E+02 -0.55020747E-06  0.18480463E+02
 TTTTTTTTTTTTTTTTTTTTTTTTTTTTTT WRPOP       TELAPSE      196.40 TCPU      196.36
 ------------------------------------------------------------------------------------
 TTTTTTTTTTTTTTTTTTTTTTTTTTTTTT SYMMEND2    TELAPSE      196.42 TCPU      196.37
 TTTTTTTTTTTTTTTTTTTTTTTTTTTTTT LOCALI      TELAPSE      196.42 TCPU      196.38
 ENDPROP   
 TTTTTTTTTTTTTTTTTTTTTTTTTTTTTT END         TELAPSE      196.42 TCPU      196.38
 EEEEEEEEEE TERMINATION  DATE 24 01 2025 TIME 17:10:22.7
------------------------------------------------------
properties finished normally
------------------------------------------------------
Localized Wannier Functions fort.80 saved as /Data/Sachs/projekte/ferroelectric_fluorides/calculations/BaZnF4_oS24_SG63_PBE0_tzvp_wannier/3.wannier
File fort.37 saved as /Data/Sachs/projekte/ferroelectric_fluorides/calculations/BaZnF4_oS24_SG63_PBE0_tzvp_wannier/3.locali
Date: 2025-01-24 17:10:22