Date: 2025-01-24 17:10:22
Running on: AGKraus-Super-Server
Temporary directory: /scratch/sachs//CRY_3585475
Executable: /Data/Software/crystal/crystal23/bin/Linux-ifort_i64/v1.0.1_openmpi//properties
Output: /Data/Sachs/projekte/ferroelectric_fluorides/calculations/BaZnF4_oS24_SG63_PBE0_tzvp_wannier/4.prop.out
Properties input data 4.d3
NEWK
0 8
8 8 5
1 0
LOCALI
END
END
END
Creating temporary directory /scratch/sachs//CRY_3585475 on node AGKraus-Super-Server
SCF wavefunction 4.w is available as /scratch/sachs//CRY_3585475/fort.9

         
 *******************************************************************************
 *                                                                             *
 *                               CRYSTAL23                                     *
 *                      public : 1.0.1 - October 2022                          *
 *                       HTTP://WWW.CRYSTAL.UNITO.IT                           *
 *                                                                             *
 *                              MAIN AUTHORS                                   *
 *                                                                             *
 *  R. DOVESI(1,11), V.R. SAUNDERS(2), C. ROETTI(1,11), R. ORLANDO(1,11),      *
 *  C.M. ZICOVICH-WILSON(1,3), F. PASCALE(4), B. CIVALLERI(1,11),              *
 *  K. DOLL(5), N.M. HARRISON(6), I.J. BUSH(7), Ph. D'ARCO(8),                 *
 *  M. LLUNELL(9), M. CAUSA'(10), Y. NOEL(8), L. MASCHIO(1,11), A. ERBA(1,11)  *
 *  M. RE'RAT(14), S. CASASSA(1,11), B.G. SEARLE(2), J.K. DESMARAIS(1)         *
 *                                                                             *
 *        CONTRIBUTIONS TO THE CODE HAVE ALSO BEEN GIVEN BY                    *
 *                                                                             *
 *  M. FERRABONE(1,11), M. DE LA PIERRE(1,11), M. FERRERO(1,11),               *
 *  J. BAIMA(1,11), E. ALBANESE(1,11), M.F. PEINTINGER(12), R. BAST(13),       *
 *  B. KIRTMAN(15), V. LACIVITA(1,11), R. DEMICHELIS(1,16)                     *
 *  G. BRANDEBURG(17), S. SALUSTRO(1,11), G. SANSONE(1,11)                     *
 *  M.T. RUGGIERO(18), L.E. DAGA(1), L. DONA'(1), A. COSSARD(1)                *
 *                                                                             *
 * (1) THEORETICAL CHEMISTRY GROUP - UNIVERSITA' DI TORINO - TORINO (ITALY)    *
 * (2) SCIENTIFIC COMPUTING DEPARTMENT - STFC DARESBURY (UK)                   *
 * (3) UNIVERSIDAD AUTONOMA DEL ESTADO DE MORELOS - CUERNAVACA (MEXICO)        *
 * (4) UNIVERSITE' DE LORRAINE - NANCY (FRANCE)                                *
 * (5) UNIVERSITAET STUTTGART- STUTTGART (GERMANY)                             *
 * (6) IMPERIAL COLLEGE - LONDON (UK)                                          *
 * (7) SCIENTIFIC COMPUTING DEPARTMENT - STFC RAL (UK)                         *
 * (8) UPMC - SORBONNE UNIVERSITES - PARIS (FRANCE)                            *
 * (9) UNIVERSIDAD DE BARCELONA - BARCELONA (SPAIN)                            *
 *(10) UNIVERSITA' DI NAPOLI "FEDERICO II" - NAPOLI (ITALY)                    *
 *(11) NIS - NANOSTRUCTURED INTERFACES AND SURFACES - TORINO (ITALY)           *
 *(12) MPI FUER CHEMISCHE ENERGIEKONVERSION - MUELHEIM AN DER RUHR (GERMANY)   *
 *(13) UNIVERSITY OF TROMSO - TROMSO (NORWAY)                                  *
 *(14) UNIVERSITE' DE PAU ET DES PAYS DE L'ADOUR - PAU (FRANCE)                *
 *(15) UNIVERSITY OF CALIFORNIA SANTA BARBARA - SANTA BARBARA (USA)            *
 *(16) CURTIN UNIVERSITY - PERTH (AUSTRALIA)                                   *
 *(17) UNIVERSITY COLLEGE LONDON - LONDON (UK)                                 *
 *(18) UNIVERSITY OF VERMONT - BURLINGTON (USA)                                *
 *                                                                             *
 *******************************************************************************
 EEEEEEEEEE STARTING  DATE 24 01 2025 TIME 17:10:22.8
 INFORMATION **** SET_MPP **** PCRYSTAL CALCULATION

 *******************************************************************************
 Polarisation path Nr. 4.                                                        
 CRYSTAL - PROPERTIES - TYPE OF CALCULATION :  RESTRICTED CLOSED SHELL
 *******************************************************************************
 KOHN-SHAM HAMILTONIAN

 (EXCHANGE)[CORRELATION] FUNCTIONAL:(PERDEW-BURKE-ERNZERHOF)[PERDEW-BURKE-ERNZERHOF]


 HYBRID EXCHANGE - PERCENTAGE OF FOCK EXCHANGE    25.0000

 DIRECT LATTICE VECTOR COMPONENTS (ANGSTROM)
         2.10290    7.28597    0.00000
        -2.10290    7.28597    0.00000
         0.00000    0.00000    5.86498

 LATTICE PARAMETERS  (ANGSTROM AND DEGREES) - PRIMITIVE CELL
       A          B          C         ALPHA      BETA     GAMMA        VOLUME
    7.58337    7.58337    5.86498     90.0000   90.0000   32.1988     179.72270
 *******************************************************************************
 N. OF ATOMS PER CELL        12 COULOMB OVERLAP TOL          (T1) 10**   -8
 NUMBER OF SHELLS           100 COULOMB PENETRATION TOL      (T2) 10**   -8
 NUMBER OF AO               256 EXCHANGE OVERLAP TOL         (T3) 10**   -8
 N. OF ELECTRONS PER CELL   152 EXCHANGE PSEUDO OVP (F(G))   (T4) 10**   -8
 CORE ELECTRONS PER CELL     52 EXCHANGE PSEUDO OVP (P(G))   (T5) 10**  -16
 N. OF SYMMETRY OPERATORS     4 POLE ORDER IN MONO ZONE                   4
 CORE  PSEUDO POTENTIAL         TOL. ON PSEUDO              (TP) 10**- 6
 *******************************************************************************
   ATOM N.AT.  SHELL    X(A)      Y(A)      Z(A)      EXAD       N.ELECT.
 *******************************************************************************
    1  256 BA    6    -0.000     2.165    -0.778   2.732E-01       8.291
    2  256 BA    6     0.000    -2.165     2.154   2.732E-01       8.291
    3   30 ZN   12    -2.103    -1.264    -1.015   3.903E-01      28.855
    4   30 ZN   12    -2.103     1.264     1.917   3.903E-01      28.855
    5    9 F     8    -2.103    -2.906    -2.193   1.400E+00       9.739
    6    9 F     8    -2.103     2.906     0.740   1.400E+00       9.739
    7    9 F     8    -2.103    -2.436     0.577   1.400E+00       9.736
    8    9 F     8    -2.103     2.436    -2.355   1.400E+00       9.736
    9    9 F     8    -0.000     1.115     1.827   1.400E+00       9.696
   10    9 F     8     0.000    -1.115    -1.105   1.400E+00       9.696
   11    9 F     8    -2.103    -0.457     2.913   1.400E+00       9.683
   12    9 F     8    -2.103     0.457    -0.020   1.400E+00       9.683
 *******************************************************************************
 DE(K)                   0.000E+00  ENERGY LEVEL SHIFTING        0.00000
 TOTAL ENERGY -4.4084124190347E+03  CONVERGENCE ON ENER       -7.346E-09
 KIN. ENERGY   4.3659975935119E+03  VIR. COEFF.           1.01558323E+00
 N. OF SCF CYCLES                9  FERMI ENERGY              -0.254E+00
 WEIGHT OF F(I) IN F(I+1)      80
 SHRINK. FACT.(MONKH.)     8  8  5  SHRINKING FACTOR(GILAT NET)        8
 NUMBER OF K POINTS IN THE IBZ  63  CELL VOLUME (A.U.)       1212.828899
 *******************************************************************************

 GCALCO - MAX INDICES DIRECT LATTICE VECTOR    16    16    11
 NO.OF VECTORS CREATED 6999 STARS 1033 RMAX   126.66320 BOHR
 TTTTTTTTTTTTTTTTTTTTTTTTTTTTTT gordsh1     TELAPSE        0.05 TCPU        0.05

 MATRIX SIZE: P(G)  371836, F(G)   65328, P(G) IRR   59485, F(G) IRR   22562
 MAX G-VECTOR INDEX FOR 1- AND 2-ELECTRON INTEGRALS 101


 CAPPA:IS1  8;IS2  8;IS3  5; K PTS MONK NET  63; SYMMOPS:K SPACE   8;G SPACE   4


 CAPPA:IS1  8;IS2  8;IS3  5; K PTS MONK NET  63; SYMMOPS:K SPACE   8;G SPACE   4

 *******************************************************************************
 RESTART WITH NEW K POINTS NET
 *******************************************************************************
 POINTS IN THE IBZ                  63 POINTS(GILAT NET)                63
 SHRINK FACTORS(MONK.)         8  8  5 SHRINK FACTOR(GILAT)              8
 *******************************************************************************
 *** K POINTS COORDINATES (OBLIQUE COORDINATES IN UNITS OF IS =  8)
   1-R(  0  0  0)   2-C(  1  0  0)   3-C(  2  0  0)   4-C(  3  0  0)
   5-R(  4  0  0)   6-C(  1  1  0)   7-C(  2  1  0)   8-C(  3  1  0)
   9-C(  4  1  0)  10-C(  5  1  0)  11-C(  6  1  0)  12-C(  7  1  0)
  13-C(  2  2  0)  14-C(  3  2  0)  15-C(  4  2  0)  16-C(  5  2  0)
  17-C(  6  2  0)  18-C(  3  3  0)  19-C(  4  3  0)  20-C(  5  3  0)
  21-R(  4  4  0)  22-C(  0  0  1)  23-C(  1  0  1)  24-C(  2  0  1)
  25-C(  3  0  1)  26-C(  4  0  1)  27-C(  1  1  1)  28-C(  2  1  1)
  29-C(  3  1  1)  30-C(  4  1  1)  31-C(  5  1  1)  32-C(  6  1  1)
  33-C(  7  1  1)  34-C(  2  2  1)  35-C(  3  2  1)  36-C(  4  2  1)
  37-C(  5  2  1)  38-C(  6  2  1)  39-C(  3  3  1)  40-C(  4  3  1)
  41-C(  5  3  1)  42-C(  4  4  1)  43-C(  0  0  2)  44-C(  1  0  2)
  45-C(  2  0  2)  46-C(  3  0  2)  47-C(  4  0  2)  48-C(  1  1  2)
  49-C(  2  1  2)  50-C(  3  1  2)  51-C(  4  1  2)  52-C(  5  1  2)
  53-C(  6  1  2)  54-C(  7  1  2)  55-C(  2  2  2)  56-C(  3  2  2)
  57-C(  4  2  2)  58-C(  5  2  2)  59-C(  6  2  2)  60-C(  3  3  2)
  61-C(  4  3  2)  62-C(  5  3  2)  63-C(  4  4  2)

 FERMI ENERGY AND DENSITY MATRIX CALCULATION ON COMPUTED EIGENVECTORS
 DENSITY MATRIX AT SCF CYCLE (  9+1)

 INSULATING STATE
 TOP OF VALENCE BANDS -    BAND     76; K   26; EIG -2.5350519E-01 AU
 TOP OF VALENCE BANDS -    BAND     76; K    1; EIG -2.5641275E-01 AU
 BOTTOM OF VIRTUAL BANDS - BAND     77; K    1; EIG  6.1998799E-02 AU
 INDIRECT ENERGY BAND GAP:   8.5853 eV

 CORE DENSITY MATRIX CALCULATION
 TTTTTTTTTTTTTTTTTTTTTTTTTTTTTT NEWK        TELAPSE        7.34 TCPU        7.30
 INSULATING STATE
 TOP OF VALENCE BANDS -    BAND     76; K   26; EIG -2.5350519E-01 AU
 TOP OF VALENCE BANDS -    BAND     76; K    1; EIG -2.5641275E-01 AU
 BOTTOM OF VIRTUAL BANDS - BAND     77; K    1; EIG  6.1998799E-02 AU
 INDIRECT ENERGY BAND GAP:   8.5853 eV

 LOCALISATION OF THE CRYSTALLINE ORBITALS
 ACCORDING TO A WANNIER-BOYS MIXED SCHEME

 LIST OF ACTIVE BANDS
      1     2     3     4     5     6     7     8     9    10    11    12    13
     14    15    16    17    18    19    20    21    22    23    24    25    26
     27    28    29    30    31    32    33    34    35    36    37    38    39
     40    41    42    43    44    45    46    47    48    49    50    51    52
     53    54    55    56    57    58    59    60    61    62    63    64    65
     66    67    68    69    70    71    72    73    74    75    76

 CONVERGENCE CRITERION: ABS(ADI(N) - ADI(N-1)) LT  0.1000E-04
 WHERE ADI IS THE ATOMIC DELOCALISATION INDEX AND N IS THE CYCLE NUMBER

 OMEGA IS THE SUM OF THE (X -X0)**2 EXPECTATION VALUES (MARZARI-VANDERBILT'S
 FUNCTIONAL)
 N OF CELLS IN THE MAXIMUM CYCLIC AND UNFOLDED CLUSTERS:  320  975
 N OF VERTICES IN THE UNFOLDED CLUSTER:  2
 TTTTTTTTTTTTTTTTTTTTTTTTTTTTTT SDKVDK      TELAPSE        7.82 TCPU        7.79

 *******************************************************************************
 CYCLE  1, DIPOLE MATRIX ELEMENTS EVALUATED WHEN WANNIER COEFF GT 10**-5
 AUTOMATIC INITIAL GUESS REQUESTED
 TTTTTTTTTTTTTTTTTTTTTTTTTTTTTT WAN0        TELAPSE        9.95 TCPU        9.91
 CLUSTER SIZE =  169 UNIT CELLS
 TTTTTTTTTTTTTTTTTTTTTTTTTTTTTT WANTOL      TELAPSE       10.33 TCPU       10.29
 TTTTTTTTTTTTTTTTTTTTTTTTTTTTTT BOYS1       TELAPSE       47.62 TCPU       47.58

 ATOMIC DELOCALISATION INDEX (BEFORE BOYS)     2.848352763    
 NORM        75.9999992825   (ERR PER WF    0.94E-08)
 BOYS LOCALISED FUNCTIONS AFTER   73 CYCLES (MAX = 500 TOL = 0.1E-07)

 SUM OF THE SQUARES OF THE DISTANCES BETWEEN CENTROIDS = 138056.    
 TTTTTTTTTTTTTTTTTTTTTTTTTTTTTT BOYS3       TELAPSE       47.67 TCPU       47.63
 OMEGA =   91.33013771          ABS(OMEGA(N)-OMEGA(N-1)) =   0.91330E+02
 TTTTTTTTTTTTTTTTTTTTTTTTTTTTTT BOYS1       TELAPSE       51.88 TCPU       51.84

 ATOMIC DELOCALISATION INDEX (AFTER  BOYS)     1.026187618    
 NORM        75.9999992825   (ERR PER WF    0.94E-08)
 TTTTTTTTTTTTTTTTTTTTTTTTTTTTTT WANTST      TELAPSE       51.88 TCPU       51.84

 *******************************************************************************
 CYCLE  2, DIPOLE MATRIX ELEMENTS EVALUATED WHEN WANNIER COEFF GT 10**-5
 TTTTTTTTTTTTTTTTTTTTTTTTTTTTTT WAN0        TELAPSE       53.89 TCPU       53.85
 CLUSTER SIZE =  169 UNIT CELLS
 TTTTTTTTTTTTTTTTTTTTTTTTTTTTTT WANTOL      TELAPSE       54.24 TCPU       54.20
 TTTTTTTTTTTTTTTTTTTTTTTTTTTTTT BOYS1       TELAPSE       92.00 TCPU       91.96

 ATOMIC DELOCALISATION INDEX (BEFORE BOYS)     1.025103768    
 NORM        76.0000000015   (ERR PER WF    0.20E-10)
 BOYS LOCALISED FUNCTIONS AFTER    7 CYCLES (MAX = 500 TOL = 0.1E-07)

 SUM OF THE SQUARES OF THE DISTANCES BETWEEN CENTROIDS = 138077.    
 TTTTTTTTTTTTTTTTTTTTTTTTTTTTTT BOYS3       TELAPSE       92.01 TCPU       91.97
 OMEGA =   89.77099958          ABS(OMEGA(N)-OMEGA(N-1)) =   0.15591E+01
 TTTTTTTTTTTTTTTTTTTTTTTTTTTTTT BOYS1       TELAPSE       96.25 TCPU       96.21

 ATOMIC DELOCALISATION INDEX (AFTER  BOYS)     1.025639317    
 NORM        76.0000000015   (ERR PER WF    0.20E-10)
 TTTTTTTTTTTTTTTTTTTTTTTTTTTTTT WANTST      TELAPSE       96.25 TCPU       96.21

 *******************************************************************************
 CYCLE  3, DIPOLE MATRIX ELEMENTS EVALUATED WHEN WANNIER COEFF GT 10**-5
 TTTTTTTTTTTTTTTTTTTTTTTTTTTTTT WAN0        TELAPSE       98.27 TCPU       98.23
 CLUSTER SIZE =  169 UNIT CELLS
 TTTTTTTTTTTTTTTTTTTTTTTTTTTTTT WANTOL      TELAPSE       98.61 TCPU       98.57
 TTTTTTTTTTTTTTTTTTTTTTTTTTTTTT BOYS1       TELAPSE      136.41 TCPU      136.37

 ATOMIC DELOCALISATION INDEX (BEFORE BOYS)     1.025103211    
 NORM        76.0000000012   (ERR PER WF    0.16E-10)
 BOYS LOCALISED FUNCTIONS AFTER    5 CYCLES (MAX = 500 TOL = 0.1E-07)

 SUM OF THE SQUARES OF THE DISTANCES BETWEEN CENTROIDS = 138077.    
 TTTTTTTTTTTTTTTTTTTTTTTTTTTTTT BOYS3       TELAPSE      136.41 TCPU      136.37
 OMEGA =   89.77070492          ABS(OMEGA(N)-OMEGA(N-1)) =   0.29466E-03
 TTTTTTTTTTTTTTTTTTTTTTTTTTTTTT BOYS1       TELAPSE      140.62 TCPU      140.58

 ATOMIC DELOCALISATION INDEX (AFTER  BOYS)     1.025639171    
 NORM        76.0000000012   (ERR PER WF    0.16E-10)
 TTTTTTTTTTTTTTTTTTTTTTTTTTTTTT WANTST      TELAPSE      140.62 TCPU      140.58

 *******************************************************************************
 FINAL RESULTS 

 WANNIER F LOCALIZATION - CONVERGENCE ACHIEVED     0.1469E-06
 TTTTTTTTTTTTTTTTTTTTTTTTTTTTTT BOYS1       TELAPSE      197.08 TCPU      197.04

 WANNIER ATOMIC POPULATIONS LARGER THAN   0.10E-01 ARE GIVEN
 DATA ARE AS FOLLOWS: ATOM, CELL INDICES AND ATOMIC POPULATION

~~~~~~~~~~~~~~~~~~~~~~~~~~~~~~~~~~~~~~~~~~~~~~~~~~~~~~~~~~~~~~~~~~~~~~~~~~~~~~~~
 WANNIER NUMBER    1 ATOMIC EXTENT  1.0000
 CENTROID'S COORDINATES R0:   -0.37478E+01   -0.19998E+01   -0.20236E+01
 EXPECTATION VALUE OF (R-R0)**2:  0.65355E+00
 SECOND ORDER TENSOR IN CARTESIAN AXES:
         X             Y             Z
 X  0.20728E+00  0.59595E-01 -0.31312E-01
 Y  0.59595E-01  0.28290E+00 -0.25042E-01
 Z -0.31312E-01 -0.25042E-01  0.16337E+00
 TENSOR EIGENVALUES:
 A  0.18253E+00  B  0.32427E+00  C  0.14674E+00
 PRINCIPAL AXES:
         X             Y             Z
 A  0.70907E+00 -0.53551E+00 -0.45875E+00
 B  0.48955E+00  0.84209E+00 -0.22632E+00
 C  0.50751E+00 -0.64104E-01  0.85926E+00
 NON BONDING WANNIER FUNCTION
 DISTANCE CENTROID-ATOM    3(  0  0  0) :   0.46138E+00
 ATOMIC POPULATION DATA:
  3 ZN(  0  0  0)  1.0000
 A.O. POPULATIONS OF ATOM    3(  0  0  0):
  -0.0000  -0.0036   0.0587   0.0416   0.0010   0.0001  -0.0001   0.0007
   0.0002  -0.0022  -0.0062  -0.0004   0.0602   0.1740   0.0119   0.0150
   0.0439   0.0031   0.0382   0.0021   0.0455   0.0530   0.1891   0.0231
   0.0013   0.0272   0.0318   0.1136   0.0094   0.0005   0.0105   0.0123
   0.0448
~~~~~~~~~~~~~~~~~~~~~~~~~~~~~~~~~~~~~~~~~~~~~~~~~~~~~~~~~~~~~~~~~~~~~~~~~~~~~~~~
 WANNIER NUMBER    2 ATOMIC EXTENT  1.0000
 CENTROID'S COORDINATES R0:   -0.40704E+01    0.23981E+01    0.35909E+01
 EXPECTATION VALUE OF (R-R0)**2:  0.41789E-01
 SECOND ORDER TENSOR IN CARTESIAN AXES:
         X             Y             Z
 X  0.16367E-01 -0.38461E-03  0.12385E-02
 Y -0.38461E-03  0.12500E-01 -0.14168E-03
 Z  0.12385E-02 -0.14168E-03  0.12921E-01
 TENSOR EIGENVALUES:
 A  0.16805E-01  B  0.12457E-01  C  0.12527E-01
 PRINCIPAL AXES:
         X             Y             Z
 A  0.94744E+00 -0.94707E-01  0.30560E+00
 B  0.10769E-01  0.96408E+00  0.26539E+00
 C -0.31976E+00 -0.24815E+00  0.91443E+00
 NON BONDING WANNIER FUNCTION
 DISTANCE CENTROID-ATOM    4(  0  0  0) :   0.10217E+00
 ATOMIC POPULATION DATA:
  4 ZN(  0  0  0)  1.0000
 A.O. POPULATIONS OF ATOM    4(  0  0  0):
  -0.0063   0.2659  -0.0035  -0.0062   0.0003  -0.0001  -0.0000  -0.0000
  -0.0000   0.6876   0.0075   0.0752  -0.0184  -0.0002  -0.0020   0.0001
   0.0000   0.0000   0.0000   0.0000   0.0000   0.0000   0.0000   0.0000
   0.0000   0.0000   0.0000   0.0000   0.0000   0.0000   0.0000   0.0000
   0.0000
~~~~~~~~~~~~~~~~~~~~~~~~~~~~~~~~~~~~~~~~~~~~~~~~~~~~~~~~~~~~~~~~~~~~~~~~~~~~~~~~
 WANNIER NUMBER    3 ATOMIC EXTENT  0.9967
 CENTROID'S COORDINATES R0:   -0.39019E+01    0.23053E+01    0.31739E+01
 EXPECTATION VALUE OF (R-R0)**2:  0.63954E+00
 SECOND ORDER TENSOR IN CARTESIAN AXES:
         X             Y             Z
 X  0.15959E+00 -0.21075E-01 -0.21971E-01
 Y -0.21075E-01  0.16878E+00  0.24715E-01
 Z -0.21971E-01  0.24715E-01  0.31117E+00
 TENSOR EIGENVALUES:
 A  0.14260E+00  B  0.17759E+00  C  0.31935E+00
 PRINCIPAL AXES:
         X             Y             Z
 A  0.78405E+00  0.62060E+00  0.11202E-01
 B -0.60040E+00  0.76286E+00 -0.23991E+00
 C -0.15743E+00  0.18137E+00  0.97073E+00
 NON BONDING WANNIER FUNCTION
 DISTANCE CENTROID-ATOM    4(  0  0  0) :   0.46214E+00
 ATOMIC POPULATION DATA:
  4 ZN(  0  0  0)  1.0017
 A.O. POPULATIONS OF ATOM    4(  0  0  0):
  -0.0000  -0.0038   0.0595   0.0420   0.0011   0.0001   0.0000   0.0002
   0.0003  -0.0002  -0.0003  -0.0087   0.0059   0.0075   0.2348   0.0015
   0.0019   0.0588   0.2650   0.0259   0.0361   0.0001   0.0030   0.1582
   0.0156   0.0212   0.0001   0.0018   0.0601   0.0062   0.0072   0.0001
   0.0007
~~~~~~~~~~~~~~~~~~~~~~~~~~~~~~~~~~~~~~~~~~~~~~~~~~~~~~~~~~~~~~~~~~~~~~~~~~~~~~~~
 WANNIER NUMBER    4 ATOMIC EXTENT  1.0000
 CENTROID'S COORDINATES R0:   -0.39271E+01   -0.24618E+01   -0.19716E+01
 EXPECTATION VALUE OF (R-R0)**2:  0.41832E-01
 SECOND ORDER TENSOR IN CARTESIAN AXES:
         X             Y             Z
 X  0.13389E-01 -0.14175E-02 -0.10027E-02
 Y -0.14175E-02  0.14778E-01  0.16463E-02
 Z -0.10027E-02  0.16463E-02  0.13665E-01
 TENSOR EIGENVALUES:
 A  0.12517E-01  B  0.16834E-01  C  0.12480E-01
 PRINCIPAL AXES:
         X             Y             Z
 A  0.85411E+00  0.18023E+00  0.48786E+00
 B -0.45004E+00  0.72630E+00  0.51957E+00
 C -0.26069E+00 -0.66333E+00  0.70145E+00
 NON BONDING WANNIER FUNCTION
 DISTANCE CENTROID-ATOM    3(  0  0  0) :   0.10217E+00
 ATOMIC POPULATION DATA:
  3 ZN(  0  0  0)  1.0000
 A.O. POPULATIONS OF ATOM    3(  0  0  0):
  -0.0063   0.2658  -0.0035  -0.0062   0.0003  -0.0001  -0.0000  -0.0000
  -0.0000   0.1614   0.4024   0.2067  -0.0043  -0.0109  -0.0056   0.0000
   0.0001   0.0000   0.0000   0.0000   0.0000   0.0000   0.0000   0.0000
   0.0000   0.0000   0.0000   0.0000   0.0000   0.0000   0.0000   0.0000
   0.0000
~~~~~~~~~~~~~~~~~~~~~~~~~~~~~~~~~~~~~~~~~~~~~~~~~~~~~~~~~~~~~~~~~~~~~~~~~~~~~~~~
 WANNIER NUMBER    5 ATOMIC EXTENT  1.0000
 CENTROID'S COORDINATES R0:   -0.40740E+01   -0.24077E+01   -0.19139E+01
 EXPECTATION VALUE OF (R-R0)**2:  0.41788E-01
 SECOND ORDER TENSOR IN CARTESIAN AXES:
         X             Y             Z
 X  0.16666E-01  0.82872E-03 -0.16270E-03
 Y  0.82872E-03  0.12618E-01 -0.34426E-04
 Z -0.16270E-03 -0.34426E-04  0.12504E-01
 TENSOR EIGENVALUES:
 A  0.16836E-01  B  0.12454E-01  C  0.12498E-01
 PRINCIPAL AXES:
         X             Y             Z
 A  0.98046E+00  0.19293E+00 -0.38357E-01
 B -0.19073E+00  0.98012E+00  0.54737E-01
 C  0.48155E-01 -0.46352E-01  0.99776E+00
 NON BONDING WANNIER FUNCTION
 DISTANCE CENTROID-ATOM    3(  0  0  0) :   0.10215E+00
 ATOMIC POPULATION DATA:
  3 ZN(  0  0  0)  1.0000
 A.O. POPULATIONS OF ATOM    3(  0  0  0):
  -0.0063   0.2659  -0.0035  -0.0063   0.0003  -0.0001  -0.0000  -0.0000
  -0.0000   0.7401   0.0287   0.0017  -0.0199  -0.0008  -0.0000   0.0001
   0.0000  -0.0000   0.0000   0.0000   0.0000   0.0000   0.0000   0.0000
   0.0000   0.0000   0.0000   0.0000   0.0000   0.0000   0.0000   0.0000
   0.0000
~~~~~~~~~~~~~~~~~~~~~~~~~~~~~~~~~~~~~~~~~~~~~~~~~~~~~~~~~~~~~~~~~~~~~~~~~~~~~~~~
 WANNIER NUMBER    6 ATOMIC EXTENT  1.0000
 CENTROID'S COORDINATES R0:   -0.39739E+01    0.23880E+01    0.36229E+01
 EXPECTATION VALUE OF (R-R0)**2:  0.45786E-02
 SECOND ORDER TENSOR IN CARTESIAN AXES:
         X             Y             Z
 X  0.15264E-02  0.24046E-06 -0.26876E-06
 Y  0.24046E-06  0.15258E-02  0.41091E-06
 Z -0.26876E-06  0.41091E-06  0.15264E-02
 TENSOR EIGENVALUES:
 A  0.15264E-02  B  0.15255E-02  C  0.15267E-02
 PRINCIPAL AXES:
         X             Y             Z
 A  0.74353E+00  0.53788E+00  0.39730E+00
 B -0.34329E+00  0.81690E+00 -0.46349E+00
 C -0.57386E+00  0.20823E+00  0.79204E+00
 NON BONDING WANNIER FUNCTION
 DISTANCE CENTROID-ATOM    4(  0  0  0) :   0.29660E-06
 ATOMIC POPULATION DATA:
  4 ZN(  0  0  0)  1.0000
 A.O. POPULATIONS OF ATOM    4(  0  0  0):
   1.0253  -0.0251  -0.0007   0.0005  -0.0001   0.0000   0.0000  -0.0000
  -0.0000   0.0000  -0.0000   0.0000   0.0000   0.0000   0.0000  -0.0000
   0.0000   0.0000   0.0000   0.0000   0.0000   0.0000   0.0000   0.0000
   0.0000   0.0000   0.0000   0.0000  -0.0000   0.0000  -0.0000   0.0000
   0.0000
~~~~~~~~~~~~~~~~~~~~~~~~~~~~~~~~~~~~~~~~~~~~~~~~~~~~~~~~~~~~~~~~~~~~~~~~~~~~~~~~
 WANNIER NUMBER    7 ATOMIC EXTENT  0.9977
 CENTROID'S COORDINATES R0:   -0.38162E+01    0.21881E+01    0.40411E+01
 EXPECTATION VALUE OF (R-R0)**2:  0.59246E+00
 SECOND ORDER TENSOR IN CARTESIAN AXES:
         X             Y             Z
 X  0.17155E+00 -0.23826E-02  0.38456E-01
 Y -0.23826E-02  0.17903E+00 -0.45670E-01
 Z  0.38456E-01 -0.45670E-01  0.24189E+00
 TENSOR EIGENVALUES:
 A  0.14217E+00  B  0.17254E+00  C  0.27776E+00
 PRINCIPAL AXES:
         X             Y             Z
 A  0.62136E+00 -0.59357E+00 -0.51146E+00
 B  0.71547E+00  0.69592E+00  0.61555E-01
 C  0.31940E+00 -0.40418E+00  0.85710E+00
 NON BONDING WANNIER FUNCTION
 DISTANCE CENTROID-ATOM    4(  0  0  0) :   0.48963E+00
 ATOMIC POPULATION DATA:
  4 ZN(  0  0  0)  1.0012
 A.O. POPULATIONS OF ATOM    4(  0  0  0):
  -0.0001  -0.0044   0.0720   0.0506   0.0014  -0.0010   0.0000   0.0000
   0.0011  -0.0010  -0.0016  -0.0076   0.0278   0.0455   0.2110   0.0070
   0.0113   0.0529   0.1124   0.0541   0.0902   0.0016   0.0343   0.0675
   0.0325   0.0538   0.0009   0.0206   0.0263   0.0130   0.0207   0.0002
   0.0082
~~~~~~~~~~~~~~~~~~~~~~~~~~~~~~~~~~~~~~~~~~~~~~~~~~~~~~~~~~~~~~~~~~~~~~~~~~~~~~~~
 WANNIER NUMBER    8 ATOMIC EXTENT  1.0000
 CENTROID'S COORDINATES R0:   -0.39591E+01   -0.22983E+01   -0.19652E+01
 EXPECTATION VALUE OF (R-R0)**2:  0.41834E-01
 SECOND ORDER TENSOR IN CARTESIAN AXES:
         X             Y             Z
 X  0.12580E-01  0.56687E-03 -0.29288E-03
 Y  0.56687E-03  0.15872E-01 -0.17280E-02
 Z -0.29288E-03 -0.17280E-02  0.13383E-01
 TENSOR EIGENVALUES:
 A  0.12484E-01  B  0.16852E-01  C  0.12498E-01
 PRINCIPAL AXES:
         X             Y             Z
 A  0.97604E+00 -0.56096E-01  0.21022E+00
 B  0.14771E+00  0.88026E+00 -0.45091E+00
 C -0.15975E+00  0.47116E+00  0.86746E+00
 NON BONDING WANNIER FUNCTION
 DISTANCE CENTROID-ATOM    3(  0  0  0) :   0.10212E+00
 ATOMIC POPULATION DATA:
  3 ZN(  0  0  0)  1.0000
 A.O. POPULATIONS OF ATOM    3(  0  0  0):
  -0.0063   0.2655  -0.0035  -0.0062   0.0003  -0.0001  -0.0000  -0.0000
  -0.0000   0.0163   0.5954   0.1592  -0.0004  -0.0161  -0.0043   0.0000
   0.0001   0.0000   0.0000   0.0000   0.0000   0.0000   0.0000   0.0000
   0.0000   0.0000   0.0000   0.0000   0.0000   0.0000   0.0000   0.0000
   0.0000
~~~~~~~~~~~~~~~~~~~~~~~~~~~~~~~~~~~~~~~~~~~~~~~~~~~~~~~~~~~~~~~~~~~~~~~~~~~~~~~~
 WANNIER NUMBER    9 ATOMIC EXTENT  1.0000
 CENTROID'S COORDINATES R0:   -0.39354E+01   -0.23842E+01   -0.18242E+01
 EXPECTATION VALUE OF (R-R0)**2:  0.41916E-01
 SECOND ORDER TENSOR IN CARTESIAN AXES:
         X             Y             Z
 X  0.13102E-01  0.51848E-04  0.15236E-02
 Y  0.51848E-04  0.12517E-01  0.11782E-03
 Z  0.15236E-02  0.11782E-03  0.16297E-01
 TENSOR EIGENVALUES:
 A  0.12491E-01  B  0.12515E-01  C  0.16911E-01
 PRINCIPAL AXES:
         X             Y             Z
 A  0.91394E+00 -0.18725E+00 -0.36006E+00
 B  0.16321E+00  0.98188E+00 -0.96326E-01
 C  0.37157E+00  0.29270E-01  0.92794E+00
 NON BONDING WANNIER FUNCTION
 DISTANCE CENTROID-ATOM    3(  0  0  0) :   0.10212E+00
 ATOMIC POPULATION DATA:
  3 ZN(  0  0  0)  1.0000
 A.O. POPULATIONS OF ATOM    3(  0  0  0):
  -0.0063   0.2658  -0.0035  -0.0063   0.0004  -0.0001  -0.0000  -0.0000
  -0.0000   0.1097   0.0011   0.6600  -0.0030  -0.0000  -0.0179   0.0000
   0.0000   0.0001   0.0000   0.0000   0.0000   0.0000   0.0000   0.0000
   0.0000   0.0000   0.0000   0.0000   0.0000   0.0000   0.0000   0.0000
   0.0000
~~~~~~~~~~~~~~~~~~~~~~~~~~~~~~~~~~~~~~~~~~~~~~~~~~~~~~~~~~~~~~~~~~~~~~~~~~~~~~~~
 WANNIER NUMBER   10 ATOMIC EXTENT  1.0000
 CENTROID'S COORDINATES R0:   -0.39542E+01    0.22894E+01    0.36410E+01
 EXPECTATION VALUE OF (R-R0)**2:  0.41852E-01
 SECOND ORDER TENSOR IN CARTESIAN AXES:
         X             Y             Z
 X  0.12640E-01 -0.77872E-03  0.12399E-03
 Y -0.77872E-03  0.16542E-01 -0.76156E-03
 Z  0.12399E-03 -0.76156E-03  0.12671E-01
 TENSOR EIGENVALUES:
 A  0.12480E-01  B  0.16834E-01  C  0.12538E-01
 PRINCIPAL AXES:
         X             Y             Z
 A  0.88054E+00  0.24490E+00  0.40581E+00
 B -0.18466E+00  0.96578E+00 -0.18214E+00
 C -0.43653E+00  0.85440E-01  0.89562E+00
 NON BONDING WANNIER FUNCTION
 DISTANCE CENTROID-ATOM    4(  0  0  0) :   0.10217E+00
 ATOMIC POPULATION DATA:
  4 ZN(  0  0  0)  1.0000
 A.O. POPULATIONS OF ATOM    4(  0  0  0):
  -0.0063   0.2657  -0.0035  -0.0063   0.0003  -0.0001  -0.0000  -0.0000
  -0.0000   0.0288   0.7176   0.0242  -0.0008  -0.0193  -0.0007   0.0000
   0.0001   0.0000   0.0000   0.0000   0.0000   0.0000   0.0000   0.0000
   0.0000   0.0000   0.0000   0.0000   0.0000   0.0000   0.0000   0.0000
   0.0000
~~~~~~~~~~~~~~~~~~~~~~~~~~~~~~~~~~~~~~~~~~~~~~~~~~~~~~~~~~~~~~~~~~~~~~~~~~~~~~~~
 WANNIER NUMBER   11 ATOMIC EXTENT  1.0000
 CENTROID'S COORDINATES R0:   -0.39739E+01    0.86379E+00   -0.37442E-01
 EXPECTATION VALUE OF (R-R0)**2:  0.45445E-01
 SECOND ORDER TENSOR IN CARTESIAN AXES:
         X             Y             Z
 X  0.15092E-01 -0.15953E-06  0.24964E-06
 Y -0.15953E-06  0.15190E-01  0.57768E-04
 Z  0.24964E-06  0.57768E-04  0.15162E-01
 TENSOR EIGENVALUES:
 A  0.15092E-01  B  0.15236E-01  C  0.15117E-01
 PRINCIPAL AXES:
         X             Y             Z
 A  0.99993E+00  0.73385E-02 -0.96971E-02
 B  0.19692E-03  0.78752E+00  0.61628E+00
 C  0.12159E-01 -0.61624E+00  0.78746E+00
 NON BONDING WANNIER FUNCTION
 DISTANCE CENTROID-ATOM   12(  0  0  0) :   0.47501E-04
 ATOMIC POPULATION DATA:
 12 F (  0  0  0)  1.0000
 A.O. POPULATIONS OF ATOM   12(  0  0  0):
   0.3815   0.6290   0.0030  -0.0119  -0.0015   0.0000   0.0000   0.0000
   0.0000   0.0000   0.0000   0.0000   0.0000   0.0000   0.0000   0.0000
   0.0000   0.0000   0.0000
~~~~~~~~~~~~~~~~~~~~~~~~~~~~~~~~~~~~~~~~~~~~~~~~~~~~~~~~~~~~~~~~~~~~~~~~~~~~~~~~
 WANNIER NUMBER   12 ATOMIC EXTENT  1.0000
 CENTROID'S COORDINATES R0:   -0.39739E+01   -0.86379E+00    0.55042E+01
 EXPECTATION VALUE OF (R-R0)**2:  0.45441E-01
 SECOND ORDER TENSOR IN CARTESIAN AXES:
         X             Y             Z
 X  0.15093E-01  0.51584E-06 -0.23130E-06
 Y  0.51584E-06  0.15187E-01 -0.56960E-04
 Z -0.23130E-06 -0.56960E-04  0.15162E-01
 TENSOR EIGENVALUES:
 A  0.15093E-01  B  0.15232E-01  C  0.15116E-01
 PRINCIPAL AXES:
         X             Y             Z
 A  0.99997E+00 -0.69306E-02 -0.23703E-02
 B  0.39134E-02  0.77905E+00 -0.62694E+00
 C  0.61917E-02  0.62692E+00  0.77906E+00
 NON BONDING WANNIER FUNCTION
 DISTANCE CENTROID-ATOM   11(  0  0  0) :   0.47947E-04
 ATOMIC POPULATION DATA:
 11 F (  0  0  0)  1.0000
 A.O. POPULATIONS OF ATOM   11(  0  0  0):
   0.3815   0.6289   0.0030  -0.0119  -0.0015   0.0000   0.0000   0.0000
   0.0000   0.0000   0.0000   0.0000   0.0000   0.0000   0.0000   0.0000
   0.0000   0.0000   0.0000
~~~~~~~~~~~~~~~~~~~~~~~~~~~~~~~~~~~~~~~~~~~~~~~~~~~~~~~~~~~~~~~~~~~~~~~~~~~~~~~~
 WANNIER NUMBER   13 ATOMIC EXTENT  1.0000
 CENTROID'S COORDINATES R0:   -0.65224E-06   -0.21069E+01   -0.20885E+01
 EXPECTATION VALUE OF (R-R0)**2:  0.45438E-01
 SECOND ORDER TENSOR IN CARTESIAN AXES:
         X             Y             Z
 X  0.15260E-01 -0.16553E-06  0.99737E-07
 Y -0.16553E-06  0.15073E-01  0.74965E-05
 Z  0.99737E-07  0.74965E-05  0.15105E-01
 TENSOR EIGENVALUES:
 A  0.15260E-01  B  0.15071E-01  C  0.15107E-01
 PRINCIPAL AXES:
         X             Y             Z
 A  0.10000E+01 -0.86161E-03  0.60298E-03
 B  0.97163E-03  0.97633E+00 -0.21628E+00
 C -0.40236E-03  0.21628E+00  0.97633E+00
 NON BONDING WANNIER FUNCTION
 DISTANCE CENTROID-ATOM   10(  0  0  0) :   0.40453E-04
 ATOMIC POPULATION DATA:
 10 F (  0  0  0)  1.0000
 A.O. POPULATIONS OF ATOM   10(  0  0  0):
   0.3815   0.6289   0.0028  -0.0117  -0.0016   0.0000   0.0000   0.0000
   0.0000   0.0000   0.0000   0.0000   0.0000   0.0000   0.0000   0.0000
   0.0000   0.0000  -0.0000
~~~~~~~~~~~~~~~~~~~~~~~~~~~~~~~~~~~~~~~~~~~~~~~~~~~~~~~~~~~~~~~~~~~~~~~~~~~~~~~~
 WANNIER NUMBER   14 ATOMIC EXTENT  1.0000
 CENTROID'S COORDINATES R0:   -0.76506E-06    0.21069E+01    0.34531E+01
 EXPECTATION VALUE OF (R-R0)**2:  0.45438E-01
 SECOND ORDER TENSOR IN CARTESIAN AXES:
         X             Y             Z
 X  0.15260E-01  0.84893E-06  0.13950E-05
 Y  0.84893E-06  0.15073E-01 -0.72553E-05
 Z  0.13950E-05 -0.72553E-05  0.15105E-01
 TENSOR EIGENVALUES:
 A  0.15260E-01  B  0.15071E-01  C  0.15107E-01
 PRINCIPAL AXES:
         X             Y             Z
 A  0.99995E+00  0.41959E-02  0.88300E-02
 B -0.59430E-02  0.97806E+00  0.20825E+00
 C -0.77625E-02 -0.20829E+00  0.97804E+00
 NON BONDING WANNIER FUNCTION
 DISTANCE CENTROID-ATOM    9(  0  0  0) :   0.40246E-04
 ATOMIC POPULATION DATA:
  9 F (  0  0  0)  1.0000
 A.O. POPULATIONS OF ATOM    9(  0  0  0):
   0.3815   0.6289   0.0028  -0.0117  -0.0016   0.0000   0.0000   0.0000
   0.0000   0.0000   0.0000   0.0000   0.0000   0.0000   0.0000   0.0000
   0.0000   0.0000   0.0000
~~~~~~~~~~~~~~~~~~~~~~~~~~~~~~~~~~~~~~~~~~~~~~~~~~~~~~~~~~~~~~~~~~~~~~~~~~~~~~~~
 WANNIER NUMBER   15 ATOMIC EXTENT  1.0000
 CENTROID'S COORDINATES R0:   -0.39739E+01    0.46027E+01   -0.44506E+01
 EXPECTATION VALUE OF (R-R0)**2:  0.45419E-01
 SECOND ORDER TENSOR IN CARTESIAN AXES:
         X             Y             Z
 X  0.15135E-01 -0.76963E-06  0.25978E-05
 Y -0.76963E-06  0.15110E-01  0.28149E-04
 Z  0.25978E-05  0.28149E-04  0.15174E-01
 TENSOR EIGENVALUES:
 A  0.15135E-01  B  0.15099E-01  C  0.15184E-01
 PRINCIPAL AXES:
         X             Y             Z
 A  0.99802E+00 -0.57578E-01 -0.25375E-01
 B  0.44896E-01  0.93419E+00 -0.35395E+00
 C  0.44085E-01  0.35211E+00  0.93492E+00
 NON BONDING WANNIER FUNCTION
 DISTANCE CENTROID-ATOM    8(  0  0  0) :   0.84015E-04
 ATOMIC POPULATION DATA:
  8 F (  0  0  0)  1.0000
 A.O. POPULATIONS OF ATOM    8(  0  0  0):
   0.3815   0.6290   0.0028  -0.0117  -0.0016   0.0000   0.0000   0.0000
   0.0000   0.0000   0.0000   0.0000   0.0000   0.0000   0.0000   0.0000
   0.0000  -0.0000   0.0000
~~~~~~~~~~~~~~~~~~~~~~~~~~~~~~~~~~~~~~~~~~~~~~~~~~~~~~~~~~~~~~~~~~~~~~~~~~~~~~~~
 WANNIER NUMBER   16 ATOMIC EXTENT  1.0000
 CENTROID'S COORDINATES R0:   -0.39739E+01   -0.46027E+01    0.10910E+01
 EXPECTATION VALUE OF (R-R0)**2:  0.45423E-01
 SECOND ORDER TENSOR IN CARTESIAN AXES:
         X             Y             Z
 X  0.15135E-01  0.11285E-05  0.23436E-05
 Y  0.11285E-05  0.15111E-01 -0.29766E-04
 Z  0.23436E-05 -0.29766E-04  0.15177E-01
 TENSOR EIGENVALUES:
 A  0.15135E-01  B  0.15099E-01  C  0.15188E-01
 PRINCIPAL AXES:
         X             Y             Z
 A  0.99802E+00  0.61777E-01 -0.11842E-01
 B -0.53412E-01  0.93174E+00  0.35918E+00
 C  0.33223E-01 -0.35784E+00  0.93319E+00
 NON BONDING WANNIER FUNCTION
 DISTANCE CENTROID-ATOM    7(  0  0  0) :   0.83042E-04
 ATOMIC POPULATION DATA:
  7 F (  0  0  0)  1.0000
 A.O. POPULATIONS OF ATOM    7(  0  0  0):
   0.3815   0.6290   0.0028  -0.0117  -0.0016  -0.0000   0.0000   0.0000
   0.0000   0.0000   0.0000  -0.0000   0.0000   0.0000   0.0000   0.0000
   0.0000  -0.0000   0.0000
~~~~~~~~~~~~~~~~~~~~~~~~~~~~~~~~~~~~~~~~~~~~~~~~~~~~~~~~~~~~~~~~~~~~~~~~~~~~~~~~
 WANNIER NUMBER   17 ATOMIC EXTENT  1.0000
 CENTROID'S COORDINATES R0:   -0.39739E+01   -0.54911E+01   -0.41439E+01
 EXPECTATION VALUE OF (R-R0)**2:  0.45401E-01
 SECOND ORDER TENSOR IN CARTESIAN AXES:
         X             Y             Z
 X  0.15110E-01  0.40480E-06  0.37328E-06
 Y  0.40480E-06  0.15158E-01 -0.58609E-05
 Z  0.37328E-06 -0.58609E-05  0.15132E-01
 TENSOR EIGENVALUES:
 A  0.15110E-01  B  0.15159E-01  C  0.15131E-01
 PRINCIPAL AXES:
         X             Y             Z
 A  0.99974E+00 -0.10982E-01 -0.19919E-01
 B  0.64749E-02  0.97690E+00 -0.21362E+00
 C  0.21805E-01  0.21343E+00  0.97671E+00
 NON BONDING WANNIER FUNCTION
 DISTANCE CENTROID-ATOM    5(  0  0  0) :   0.83578E-04
 ATOMIC POPULATION DATA:
  5 F (  0  0  0)  1.0000
 A.O. POPULATIONS OF ATOM    5(  0  0  0):
   0.3815   0.6290   0.0028  -0.0117  -0.0016   0.0000   0.0000   0.0000
   0.0000   0.0000   0.0000   0.0000   0.0000   0.0000   0.0000   0.0000
  -0.0000   0.0000   0.0000
~~~~~~~~~~~~~~~~~~~~~~~~~~~~~~~~~~~~~~~~~~~~~~~~~~~~~~~~~~~~~~~~~~~~~~~~~~~~~~~~
 WANNIER NUMBER   18 ATOMIC EXTENT  1.0000
 CENTROID'S COORDINATES R0:   -0.39739E+01    0.54911E+01    0.13977E+01
 EXPECTATION VALUE OF (R-R0)**2:  0.45403E-01
 SECOND ORDER TENSOR IN CARTESIAN AXES:
         X             Y             Z
 X  0.15113E-01 -0.15280E-05 -0.11510E-05
 Y -0.15280E-05  0.15159E-01  0.78428E-05
 Z -0.11510E-05  0.78428E-05  0.15131E-01
 TENSOR EIGENVALUES:
 A  0.15113E-01  B  0.15161E-01  C  0.15129E-01
 PRINCIPAL AXES:
         X             Y             Z
 A  0.99842E+00  0.24161E-01  0.50678E-01
 B -0.36312E-01  0.96634E+00  0.25468E+00
 C -0.42819E-01 -0.25612E+00  0.96570E+00
 NON BONDING WANNIER FUNCTION
 DISTANCE CENTROID-ATOM    6(  0  0  0) :   0.83600E-04
 ATOMIC POPULATION DATA:
  6 F (  0  0  0)  1.0000
 A.O. POPULATIONS OF ATOM    6(  0  0  0):
   0.3815   0.6290   0.0028  -0.0117  -0.0016   0.0000   0.0000   0.0000
   0.0000   0.0000   0.0000   0.0000   0.0000   0.0000   0.0000   0.0000
  -0.0000   0.0000   0.0000
~~~~~~~~~~~~~~~~~~~~~~~~~~~~~~~~~~~~~~~~~~~~~~~~~~~~~~~~~~~~~~~~~~~~~~~~~~~~~~~~
 WANNIER NUMBER   19 ATOMIC EXTENT  1.0000
 CENTROID'S COORDINATES R0:   -0.39607E+01    0.24417E+01    0.37087E+01
 EXPECTATION VALUE OF (R-R0)**2:  0.41828E-01
 SECOND ORDER TENSOR IN CARTESIAN AXES:
         X             Y             Z
 X  0.12575E-01  0.31195E-03  0.47793E-03
 Y  0.31195E-03  0.13695E-01  0.19352E-02
 Z  0.47793E-03  0.19352E-02  0.15557E-01
 TENSOR EIGENVALUES:
 A  0.12503E-01  B  0.12475E-01  C  0.16850E-01
 PRINCIPAL AXES:
         X             Y             Z
 A  0.91849E+00  0.25295E+00 -0.30397E+00
 B -0.37265E+00  0.81084E+00 -0.45130E+00
 C  0.13231E+00  0.52779E+00  0.83900E+00
 NON BONDING WANNIER FUNCTION
 DISTANCE CENTROID-ATOM    4(  0  0  0) :   0.10212E+00
 ATOMIC POPULATION DATA:
  4 ZN(  0  0  0)  1.0000
 A.O. POPULATIONS OF ATOM    4(  0  0  0):
  -0.0063   0.2656  -0.0035  -0.0063   0.0004  -0.0001  -0.0000  -0.0000
  -0.0000   0.0130   0.2131   0.5447  -0.0004  -0.0057  -0.0147   0.0000
   0.0000   0.0001   0.0000   0.0000   0.0000   0.0000   0.0000   0.0000
   0.0000   0.0000   0.0000   0.0000   0.0000   0.0000   0.0000   0.0000
   0.0000
~~~~~~~~~~~~~~~~~~~~~~~~~~~~~~~~~~~~~~~~~~~~~~~~~~~~~~~~~~~~~~~~~~~~~~~~~~~~~~~~
 WANNIER NUMBER   20 ATOMIC EXTENT  0.9972
 CENTROID'S COORDINATES R0:   -0.34884E+01   -0.24413E+01   -0.18449E+01
 EXPECTATION VALUE OF (R-R0)**2:  0.58327E+00
 SECOND ORDER TENSOR IN CARTESIAN AXES:
         X             Y             Z
 X  0.28696E+00 -0.12224E-01  0.20594E-01
 Y -0.12224E-01  0.14898E+00 -0.14337E-01
 Z  0.20594E-01 -0.14337E-01  0.14734E+00
 TENSOR EIGENVALUES:
 A  0.29135E+00  B  0.15845E+00  C  0.13348E+00
 PRINCIPAL AXES:
         X             Y             Z
 A  0.98357E+00 -0.99613E-01  0.15057E+00
 B  0.17389E+00  0.74694E+00 -0.64175E+00
 C -0.48540E-01  0.65739E+00  0.75198E+00
 NON BONDING WANNIER FUNCTION
 DISTANCE CENTROID-ATOM    3(  0  0  0) :   0.49396E+00
 ATOMIC POPULATION DATA:
  3 ZN(  0  0  0)  1.0014
 A.O. POPULATIONS OF ATOM    3(  0  0  0):
  -0.0000  -0.0043   0.0683   0.0483   0.0021   0.0016   0.0006   0.0001
   0.0001  -0.0102  -0.0001  -0.0003   0.2778   0.0023   0.0072   0.0692
   0.0006   0.0019   0.0575   0.0204   0.0030   0.2016   0.0129   0.0341
   0.0122   0.0018   0.1198   0.0077   0.0124   0.0049   0.0007   0.0439
   0.0031
~~~~~~~~~~~~~~~~~~~~~~~~~~~~~~~~~~~~~~~~~~~~~~~~~~~~~~~~~~~~~~~~~~~~~~~~~~~~~~~~
 WANNIER NUMBER   21 ATOMIC EXTENT  0.9993
 CENTROID'S COORDINATES R0:   -0.43175E+01    0.21722E+01    0.38401E+01
 EXPECTATION VALUE OF (R-R0)**2:  0.65125E+00
 SECOND ORDER TENSOR IN CARTESIAN AXES:
         X             Y             Z
 X  0.26121E+00  0.42502E-01 -0.56827E-01
 Y  0.42502E-01  0.20424E+00 -0.48943E-01
 Z -0.56827E-01 -0.48943E-01  0.18580E+00
 TENSOR EIGENVALUES:
 A  0.32336E+00  B  0.18641E+00  C  0.14147E+00
 PRINCIPAL AXES:
         X             Y             Z
 A  0.74946E+00  0.46216E+00 -0.47404E+00
 B -0.62526E+00  0.72946E+00 -0.27738E+00
 C  0.21760E+00  0.50428E+00  0.83567E+00
 NON BONDING WANNIER FUNCTION
 DISTANCE CENTROID-ATOM    4(  0  0  0) :   0.46027E+00
 ATOMIC POPULATION DATA:
  4 ZN(  0  0  0)  1.0003
 A.O. POPULATIONS OF ATOM    4(  0  0  0):
  -0.0000  -0.0037   0.0588   0.0415   0.0014   0.0001   0.0000  -0.0000
   0.0003  -0.0052  -0.0021  -0.0021   0.1391   0.0562   0.0550   0.0346
   0.0139   0.0138   0.0017   0.1151   0.0276   0.0276   0.1544   0.0010
   0.0691   0.0164   0.0164   0.0927   0.0003   0.0276   0.0062   0.0062
   0.0366
~~~~~~~~~~~~~~~~~~~~~~~~~~~~~~~~~~~~~~~~~~~~~~~~~~~~~~~~~~~~~~~~~~~~~~~~~~~~~~~~
 WANNIER NUMBER   22 ATOMIC EXTENT  0.9990
 CENTROID'S COORDINATES R0:   -0.43980E+01   -0.24936E+01   -0.16911E+01
 EXPECTATION VALUE OF (R-R0)**2:  0.59283E+00
 SECOND ORDER TENSOR IN CARTESIAN AXES:
         X             Y             Z
 X  0.25926E+00  0.26860E-01 -0.46968E-01
 Y  0.26860E-01  0.14359E+00 -0.17621E-01
 Z -0.46968E-01 -0.17621E-01  0.18999E+00
 TENSOR EIGENVALUES:
 A  0.28994E+00  B  0.13621E+00  C  0.16668E+00
 PRINCIPAL AXES:
         X             Y             Z
 A  0.86924E+00  0.21323E+00 -0.44604E+00
 B -0.13571E+00  0.97046E+00  0.19946E+00
 C  0.47539E+00 -0.11284E+00  0.87251E+00
 NON BONDING WANNIER FUNCTION
 DISTANCE CENTROID-ATOM    3(  0  0  0) :   0.49278E+00
 ATOMIC POPULATION DATA:
  3 ZN(  0  0  0)  1.0005
 A.O. POPULATIONS OF ATOM    3(  0  0  0):
  -0.0001  -0.0042   0.0689   0.0487   0.0018   0.0011   0.0007   0.0001
   0.0002  -0.0075  -0.0005  -0.0022   0.2096   0.0153   0.0607   0.0525
   0.0039   0.0152   0.0208   0.1614   0.0063   0.0794   0.0254   0.0124
   0.0969   0.0037   0.0471   0.0153   0.0045   0.0386   0.0013   0.0170
   0.0060
~~~~~~~~~~~~~~~~~~~~~~~~~~~~~~~~~~~~~~~~~~~~~~~~~~~~~~~~~~~~~~~~~~~~~~~~~~~~~~~~
 WANNIER NUMBER   23 ATOMIC EXTENT  1.0000
 CENTROID'S COORDINATES R0:   -0.39104E+01    0.24228E+01    0.35509E+01
 EXPECTATION VALUE OF (R-R0)**2:  0.41896E-01
 SECOND ORDER TENSOR IN CARTESIAN AXES:
         X             Y             Z
 X  0.14177E-01  0.92041E-03 -0.19127E-02
 Y  0.92041E-03  0.13014E-01 -0.10474E-02
 Z -0.19127E-02 -0.10474E-02  0.14705E-01
 TENSOR EIGENVALUES:
 A  0.12516E-01  B  0.12505E-01  C  0.16875E-01
 PRINCIPAL AXES:
         X             Y             Z
 A  0.35288E+00  0.68584E+00  0.63647E+00
 B -0.70231E+00  0.64362E+00 -0.30416E+00
 C -0.61826E+00 -0.33967E+00  0.70879E+00
 NON BONDING WANNIER FUNCTION
 DISTANCE CENTROID-ATOM    4(  0  0  0) :   0.10214E+00
 ATOMIC POPULATION DATA:
  4 ZN(  0  0  0)  1.0000
 A.O. POPULATIONS OF ATOM    4(  0  0  0):
  -0.0063   0.2658  -0.0035  -0.0062   0.0003  -0.0001  -0.0000  -0.0000
  -0.0000   0.2981   0.0893   0.3834  -0.0080  -0.0024  -0.0104   0.0000
   0.0000   0.0001   0.0000   0.0000   0.0000   0.0000   0.0000   0.0000
   0.0000   0.0000   0.0000   0.0000   0.0000   0.0000   0.0000   0.0000
   0.0000
~~~~~~~~~~~~~~~~~~~~~~~~~~~~~~~~~~~~~~~~~~~~~~~~~~~~~~~~~~~~~~~~~~~~~~~~~~~~~~~~
 WANNIER NUMBER   24 ATOMIC EXTENT  0.9999
 CENTROID'S COORDINATES R0:   -0.42855E+01   -0.20422E+01   -0.20757E+01
 EXPECTATION VALUE OF (R-R0)**2:  0.59515E+00
 SECOND ORDER TENSOR IN CARTESIAN AXES:
         X             Y             Z
 X  0.21162E+00 -0.52327E-01  0.32299E-01
 Y -0.52327E-01  0.22615E+00 -0.30082E-01
 Z  0.32299E-01 -0.30082E-01  0.15739E+00
 TENSOR EIGENVALUES:
 A  0.16682E+00  B  0.28664E+00  C  0.14170E+00
 PRINCIPAL AXES:
         X             Y             Z
 A  0.69750E+00  0.69780E+00  0.16299E+00
 B -0.63094E+00  0.70587E+00 -0.32195E+00
 C -0.33971E+00  0.12172E+00  0.93262E+00
 NON BONDING WANNIER FUNCTION
 DISTANCE CENTROID-ATOM    3(  0  0  0) :   0.49123E+00
 ATOMIC POPULATION DATA:
  3 ZN(  0  0  0)  1.0001
 A.O. POPULATIONS OF ATOM    3(  0  0  0):
  -0.0001  -0.0043   0.0696   0.0494   0.0014   0.0004  -0.0001   0.0005
   0.0002  -0.0041  -0.0051  -0.0011   0.1135   0.1413   0.0314   0.0283
   0.0356   0.0080   0.0187   0.0222   0.0477   0.0013   0.2018   0.0113
   0.0134   0.0284   0.0008   0.1212   0.0045   0.0053   0.0106   0.0004
   0.0478
~~~~~~~~~~~~~~~~~~~~~~~~~~~~~~~~~~~~~~~~~~~~~~~~~~~~~~~~~~~~~~~~~~~~~~~~~~~~~~~~
 WANNIER NUMBER   25 ATOMIC EXTENT  1.0000
 CENTROID'S COORDINATES R0:   -0.39739E+01   -0.23880E+01   -0.19187E+01
 EXPECTATION VALUE OF (R-R0)**2:  0.45785E-02
 SECOND ORDER TENSOR IN CARTESIAN AXES:
         X             Y             Z
 X  0.15248E-02  0.92470E-09  0.43495E-06
 Y  0.92470E-09  0.15260E-02 -0.58769E-06
 Z  0.43495E-06 -0.58769E-06  0.15277E-02
 TENSOR EIGENVALUES:
 A  0.15247E-02  B  0.15258E-02  C  0.15279E-02
 PRINCIPAL AXES:
         X             Y             Z
 A  0.98363E+00 -0.77803E-01 -0.16256E+00
 B  0.12084E+00  0.95393E+00  0.27462E+00
 C  0.13370E+00 -0.28976E+00  0.94771E+00
 NON BONDING WANNIER FUNCTION
 DISTANCE CENTROID-ATOM    3(  0  0  0) :   0.24861E-06
 ATOMIC POPULATION DATA:
  3 ZN(  0  0  0)  1.0000
 A.O. POPULATIONS OF ATOM    3(  0  0  0):
   1.0253  -0.0251  -0.0007   0.0005  -0.0001   0.0000   0.0000   0.0000
   0.0000   0.0000  -0.0000   0.0000   0.0000   0.0000   0.0000   0.0000
   0.0000   0.0000   0.0000   0.0000   0.0000   0.0000   0.0000   0.0000
   0.0000   0.0000   0.0000   0.0000   0.0000   0.0000  -0.0000  -0.0000
   0.0000
~~~~~~~~~~~~~~~~~~~~~~~~~~~~~~~~~~~~~~~~~~~~~~~~~~~~~~~~~~~~~~~~~~~~~~~~~~~~~~~~
 WANNIER NUMBER   26 ATOMIC EXTENT  0.9978
 CENTROID'S COORDINATES R0:   -0.37065E+01    0.26827E+01    0.38544E+01
 EXPECTATION VALUE OF (R-R0)**2:  0.64517E+00
 SECOND ORDER TENSOR IN CARTESIAN AXES:
         X             Y             Z
 X  0.21941E+00  0.50579E-01  0.54307E-01
 Y  0.50579E-01  0.23569E+00  0.53247E-01
 Z  0.54307E-01  0.53247E-01  0.19006E+00
 TENSOR EIGENVALUES:
 A  0.17738E+00  B  0.32228E+00  C  0.14551E+00
 PRINCIPAL AXES:
         X             Y             Z
 A  0.67357E+00 -0.72326E+00  0.15229E+00
 B  0.57988E+00  0.64487E+00  0.49787E+00
 C -0.45830E+00 -0.24705E+00  0.85377E+00
 NON BONDING WANNIER FUNCTION
 DISTANCE CENTROID-ATOM    4(  0  0  0) :   0.46036E+00
 ATOMIC POPULATION DATA:
  4 ZN(  0  0  0)  1.0011
 A.O. POPULATIONS OF ATOM    4(  0  0  0):
  -0.0000  -0.0037   0.0589   0.0417   0.0012   0.0005   0.0005  -0.0001
  -0.0001  -0.0031  -0.0037  -0.0023   0.0831   0.1039   0.0649   0.0208
   0.0256   0.0159   0.0004   0.0555   0.1007   0.0002   0.1695   0.0003
   0.0333   0.0597   0.0001   0.1019   0.0002   0.0132   0.0219   0.0001
   0.0402
~~~~~~~~~~~~~~~~~~~~~~~~~~~~~~~~~~~~~~~~~~~~~~~~~~~~~~~~~~~~~~~~~~~~~~~~~~~~~~~~
 WANNIER NUMBER   27 ATOMIC EXTENT  0.9913
 CENTROID'S COORDINATES R0:    0.15702E-01    0.36931E+01   -0.22800E+01
 EXPECTATION VALUE OF (R-R0)**2:  0.31510E+01
 SECOND ORDER TENSOR IN CARTESIAN AXES:
         X             Y             Z
 X  0.89015E+00 -0.47363E-02 -0.78116E-02
 Y -0.47363E-02  0.98001E+00  0.18050E+00
 Z -0.78116E-02  0.18050E+00  0.12809E+01
 TENSOR EIGENVALUES:
 A  0.88981E+00  B  0.89564E+00  C  0.13656E+01
 PRINCIPAL AXES:
         X             Y             Z
 A  0.98531E+00  0.16168E+00 -0.54943E-01
 B -0.16969E+00  0.89107E+00 -0.42094E+00
 C -0.19101E-01  0.42408E+00  0.90542E+00
 NON BONDING WANNIER FUNCTION
 DISTANCE CENTROID-ATOM    1(  0  0  0) :   0.90179E+00
 ATOMIC POPULATION DATA:
  1 BA(  0  0  0)  1.0044
 A.O. POPULATIONS OF ATOM    1(  0  0  0):
   0.0336   0.2171  -0.0009   0.0000   0.0228   0.0987   0.0002   0.1154
   0.5173   0.0000   0.0000   0.0000   0.0000   0.0000   0.0000   0.0000
   0.0001   0.0000   0.0000
~~~~~~~~~~~~~~~~~~~~~~~~~~~~~~~~~~~~~~~~~~~~~~~~~~~~~~~~~~~~~~~~~~~~~~~~~~~~~~~~
 WANNIER NUMBER   28 ATOMIC EXTENT  0.9877
 CENTROID'S COORDINATES R0:    0.11709E-01   -0.34611E+01    0.46953E+01
 EXPECTATION VALUE OF (R-R0)**2:  0.31582E+01
 SECOND ORDER TENSOR IN CARTESIAN AXES:
         X             Y             Z
 X  0.89027E+00  0.21993E-02  0.55533E-02
 Y  0.21993E-02  0.11304E+01  0.23924E+00
 Z  0.55533E-02  0.23924E+00  0.11376E+01
 TENSOR EIGENVALUES:
 A  0.88922E+00  B  0.89571E+00  C  0.13733E+01
 PRINCIPAL AXES:
         X             Y             Z
 A  0.92063E+00  0.27069E+00 -0.28136E+00
 B -0.39027E+00  0.65902E+00 -0.64295E+00
 C  0.11385E-01  0.70173E+00  0.71235E+00
 NON BONDING WANNIER FUNCTION
 DISTANCE CENTROID-ATOM    2(  0  0  0) :   0.88735E+00
 ATOMIC POPULATION DATA:
  2 BA(  0  0  0)  1.0062
 A.O. POPULATIONS OF ATOM    2(  0  0  0):
   0.0326   0.2109  -0.0010   0.0000   0.0604   0.0608   0.0001   0.3170
   0.3252   0.0000   0.0000   0.0000   0.0000   0.0000   0.0000   0.0000
   0.0000   0.0000   0.0000
~~~~~~~~~~~~~~~~~~~~~~~~~~~~~~~~~~~~~~~~~~~~~~~~~~~~~~~~~~~~~~~~~~~~~~~~~~~~~~~~
 WANNIER NUMBER   29 ATOMIC EXTENT  1.1144
 CENTROID'S COORDINATES R0:   -0.39732E+01   -0.89399E+00    0.60857E+01
 EXPECTATION VALUE OF (R-R0)**2:  0.16844E+01
 SECOND ORDER TENSOR IN CARTESIAN AXES:
         X             Y             Z
 X  0.43989E+00  0.39590E-03  0.11812E-02
 Y  0.39590E-03  0.45301E+00 -0.53279E-01
 Z  0.11812E-02 -0.53279E-01  0.79148E+00
 TENSOR EIGENVALUES:
 A  0.43983E+00  B  0.44488E+00  C  0.79967E+00
 PRINCIPAL AXES:
         X             Y             Z
 A  0.99353E+00 -0.11178E+00 -0.20273E-01
 B  0.11356E+00  0.98205E+00  0.15057E+00
 C  0.30779E-02 -0.15190E+00  0.98839E+00
 BONDING WANNIER FUNCTION BETWEEN ATOMS:
 A:  11 F (  0  0  0) X -0.397391E+01 Y -0.863835E+00 Z  0.550414E+01 (AU)
 B:   3 ZN(  0  0  1) X -0.397391E+01 Y -0.238801E+01 Z  0.916448E+01 (AU)
 DISTANCE OF THE CENTROID FROM THE ATOMS A,B AND FROM THE A-B BOND:
  0.58233E+00  0.34221E+01  0.19571E+00
 POLARISATION FRACTION (0: COVALENT; 1: VERY IONIC)  0.72335E+00
 ATOMIC POPULATION DATA:
 11 F (  0  0  0)  0.9460   3 ZN(  0  0  1)  0.0498
 A.O. POPULATIONS OF ATOM   11(  0  0  0):
   0.0014  -0.0077   0.0662   0.1148   0.0721   0.0000  -0.0000   0.2253
   0.0000   0.0001   0.2200   0.0000   0.0002   0.2536   0.0000   0.0000
   0.0000  -0.0000   0.0000
 A.O. POPULATIONS OF ATOM    3(  0  0  1):
  -0.0000   0.0000   0.0002  -0.0011   0.0009   0.0214   0.0000   0.0059
   0.0208  -0.0000   0.0000   0.0000   0.0000   0.0001   0.0002   0.0000
   0.0000   0.0001   0.0003   0.0000   0.0006   0.0000   0.0000  -0.0001
   0.0000  -0.0000  -0.0000   0.0000   0.0003   0.0000   0.0002   0.0000
   0.0000
~~~~~~~~~~~~~~~~~~~~~~~~~~~~~~~~~~~~~~~~~~~~~~~~~~~~~~~~~~~~~~~~~~~~~~~~~~~~~~~~
 WANNIER NUMBER   30 ATOMIC EXTENT  1.1577
 CENTROID'S COORDINATES R0:   -0.39728E+01    0.41985E+01   -0.49225E+01
 EXPECTATION VALUE OF (R-R0)**2:  0.17358E+01
 SECOND ORDER TENSOR IN CARTESIAN AXES:
         X             Y             Z
 X  0.47452E+00 -0.16484E-02 -0.12661E-02
 Y -0.16484E-02  0.59044E+00  0.16933E+00
 Z -0.12661E-02  0.16933E+00  0.67088E+00
 TENSOR EIGENVALUES:
 A  0.47452E+00  B  0.45661E+00  C  0.80471E+00
 PRINCIPAL AXES:
         X             Y             Z
 A  0.99958E+00 -0.18482E-01  0.22383E-01
 B  0.28378E-01  0.78435E+00 -0.61967E+00
 C -0.61038E-02  0.62004E+00  0.78455E+00
 BONDING WANNIER FUNCTION BETWEEN ATOMS:
 A:   8 F (  0  0  0) X -0.397391E+01 Y  0.460281E+01 Z -0.445057E+01 (AU)
 B:   4 ZN(  0  0 -1) X -0.397391E+01 Y  0.238801E+01 Z -0.746033E+01 (AU)
 DISTANCE OF THE CENTROID FROM THE ATOMS A,B AND FROM THE A-B BOND:
  0.62146E+00  0.31174E+01  0.45946E-01
 POLARISATION FRACTION (0: COVALENT; 1: VERY IONIC)  0.66830E+00
 ATOMIC POPULATION DATA:
  8 F (  0  0  0)  0.9268   4 ZN(  0  0 -1)  0.0697
 A.O. POPULATIONS OF ATOM    8(  0  0  0):
   0.0012  -0.0067   0.0570   0.1046   0.0594   0.0000   0.0984   0.1346
   0.0000   0.0933   0.1282   0.0000   0.1079   0.1489   0.0000   0.0000
   0.0001   0.0000   0.0000
 A.O. POPULATIONS OF ATOM    4(  0  0 -1):
  -0.0000   0.0001   0.0002  -0.0026   0.0061   0.0261   0.0000   0.0110
   0.0261  -0.0000   0.0000   0.0000   0.0000   0.0001   0.0003   0.0000
   0.0001   0.0001   0.0003   0.0000   0.0008   0.0000   0.0000  -0.0001
  -0.0000  -0.0002  -0.0000  -0.0000   0.0004   0.0000   0.0007   0.0001
   0.0000
~~~~~~~~~~~~~~~~~~~~~~~~~~~~~~~~~~~~~~~~~~~~~~~~~~~~~~~~~~~~~~~~~~~~~~~~~~~~~~~~
 WANNIER NUMBER   31 ATOMIC EXTENT  1.0283
 CENTROID'S COORDINATES R0:   -0.44156E+01    0.11186E+01   -0.22570E+00
 EXPECTATION VALUE OF (R-R0)**2:  0.15931E+01
 SECOND ORDER TENSOR IN CARTESIAN AXES:
         X             Y             Z
 X  0.63688E+00 -0.15604E+00  0.98535E-01
 Y -0.15604E+00  0.51244E+00 -0.56126E-01
 Z  0.98535E-01 -0.56126E-01  0.44382E+00
 TENSOR EIGENVALUES:
 A  0.78062E+00  B  0.41464E+00  C  0.39789E+00
 PRINCIPAL AXES:
         X             Y             Z
 A  0.78888E+00 -0.52564E+00  0.31839E+00
 B  0.21966E+00  0.72504E+00  0.65273E+00
 C -0.57395E+00 -0.44499E+00  0.68743E+00
 NON BONDING WANNIER FUNCTION
 DISTANCE CENTROID-ATOM   12(  0  0  0) :   0.54355E+00
 ATOMIC POPULATION DATA:
 12 F (  0  0  0)  0.9861
 A.O. POPULATIONS OF ATOM   12(  0  0  0):
   0.0012  -0.0079   0.0680   0.1070   0.0821   0.1581   0.0528   0.0289
   0.1547   0.0508   0.0284   0.1735   0.0567   0.0319   0.0000   0.0000
   0.0000   0.0000   0.0000
~~~~~~~~~~~~~~~~~~~~~~~~~~~~~~~~~~~~~~~~~~~~~~~~~~~~~~~~~~~~~~~~~~~~~~~~~~~~~~~~
 WANNIER NUMBER   32 ATOMIC EXTENT  1.0313
 CENTROID'S COORDINATES R0:   -0.35220E+01   -0.54365E+01   -0.44563E+01
 EXPECTATION VALUE OF (R-R0)**2:  0.16624E+01
 SECOND ORDER TENSOR IN CARTESIAN AXES:
         X             Y             Z
 X  0.67591E+00  0.36953E-01 -0.18951E+00
 Y  0.36953E-01  0.43439E+00 -0.38730E-01
 Z -0.18951E+00 -0.38730E-01  0.55211E+00
 TENSOR EIGENVALUES:
 A  0.82056E+00  B  0.43237E+00  C  0.40948E+00
 PRINCIPAL AXES:
         X             Y             Z
 A  0.80015E+00  0.13518E+00 -0.58437E+00
 B -0.37626E+00  0.87186E+00 -0.31352E+00
 C  0.46710E+00  0.47074E+00  0.74848E+00
 NON BONDING WANNIER FUNCTION
 DISTANCE CENTROID-ATOM    5(  0  0  0) :   0.55211E+00
 ATOMIC POPULATION DATA:
  5 F (  0  0  0)  0.9846   2 BA(  0  0 -1)  0.0107
 A.O. POPULATIONS OF ATOM    5(  0  0  0):
   0.0013  -0.0080   0.0696   0.1076   0.0856   0.1625   0.0015   0.0788
   0.1534   0.0012   0.0746   0.1718   0.0014   0.0834   0.0000   0.0000
   0.0000  -0.0000   0.0000
 A.O. POPULATIONS OF ATOM    2(  0  0 -1):
  -0.0000  -0.0013   0.0052  -0.0007   0.0000  -0.0004  -0.0003  -0.0001
  -0.0002   0.0000   0.0003   0.0001   0.0001   0.0001   0.0000   0.0042
   0.0008   0.0014   0.0015
~~~~~~~~~~~~~~~~~~~~~~~~~~~~~~~~~~~~~~~~~~~~~~~~~~~~~~~~~~~~~~~~~~~~~~~~~~~~~~~~
 WANNIER NUMBER   33 ATOMIC EXTENT  1.0334
 CENTROID'S COORDINATES R0:   -0.39762E+01    0.59679E+01    0.16861E+01
 EXPECTATION VALUE OF (R-R0)**2:  0.16793E+01
 SECOND ORDER TENSOR IN CARTESIAN AXES:
         X             Y             Z
 X  0.42275E+00 -0.73156E-03 -0.41711E-03
 Y -0.73156E-03  0.73922E+00  0.19329E+00
 Z -0.41711E-03  0.19329E+00  0.51728E+00
 TENSOR EIGENVALUES:
 A  0.42275E+00  B  0.85113E+00  C  0.40538E+00
 PRINCIPAL AXES:
         X             Y             Z
 A  0.10000E+01  0.15405E-02  0.12626E-02
 B -0.19658E-02  0.86541E+00  0.50105E+00
 C -0.32077E-03 -0.50105E+00  0.86542E+00
 NON BONDING WANNIER FUNCTION
 DISTANCE CENTROID-ATOM    6(  0  0  0) :   0.55717E+00
 ATOMIC POPULATION DATA:
  6 F (  0  0  0)  0.9836   2 BA(  0  1  0)  0.0112
 A.O. POPULATIONS OF ATOM    6(  0  0  0):
   0.0014  -0.0085   0.0734   0.1177   0.0859   0.0000   0.1760   0.0616
   0.0000   0.1667   0.0578   0.0000   0.1871   0.0646   0.0000   0.0000
   0.0000   0.0000   0.0000
 A.O. POPULATIONS OF ATOM    2(  0  1  0):
  -0.0000  -0.0016   0.0055   0.0000  -0.0014  -0.0008  -0.0000  -0.0006
  -0.0002   0.0000   0.0000   0.0005   0.0003   0.0000   0.0001   0.0000
   0.0058   0.0037   0.0000
~~~~~~~~~~~~~~~~~~~~~~~~~~~~~~~~~~~~~~~~~~~~~~~~~~~~~~~~~~~~~~~~~~~~~~~~~~~~~~~~
 WANNIER NUMBER   34 ATOMIC EXTENT  1.0281
 CENTROID'S COORDINATES R0:   -0.39729E+01   -0.50984E+01    0.88627E+00
 EXPECTATION VALUE OF (R-R0)**2:  0.16057E+01
 SECOND ORDER TENSOR IN CARTESIAN AXES:
         X             Y             Z
 X  0.41843E+00 -0.18701E-02 -0.97287E-03
 Y -0.18701E-02  0.72168E+00  0.12121E+00
 Z -0.97287E-03  0.12121E+00  0.46554E+00
 TENSOR EIGENVALUES:
 A  0.41846E+00  B  0.76996E+00  C  0.41724E+00
 PRINCIPAL AXES:
         X             Y             Z
 A  0.98408E+00  0.71163E-01 -0.16284E+00
 B -0.59663E-02  0.92904E+00  0.36993E+00
 C  0.17761E+00 -0.36307E+00  0.91468E+00
 NON BONDING WANNIER FUNCTION
 DISTANCE CENTROID-ATOM    7(  0  0  0) :   0.53627E+00
 ATOMIC POPULATION DATA:
  7 F (  0  0  0)  0.9862
 A.O. POPULATIONS OF ATOM    7(  0  0  0):
   0.0013  -0.0082   0.0704   0.1141   0.0801   0.0000   0.2098   0.0327
   0.0000   0.1987   0.0313   0.0000   0.2210   0.0351   0.0000   0.0000
  -0.0000   0.0000   0.0000
~~~~~~~~~~~~~~~~~~~~~~~~~~~~~~~~~~~~~~~~~~~~~~~~~~~~~~~~~~~~~~~~~~~~~~~~~~~~~~~~
 WANNIER NUMBER   35 ATOMIC EXTENT  1.1214
 CENTROID'S COORDINATES R0:    0.47399E+00    0.22809E+01    0.37079E+01
 EXPECTATION VALUE OF (R-R0)**2:  0.17298E+01
 SECOND ORDER TENSOR IN CARTESIAN AXES:
         X             Y             Z
 X  0.75871E+00  0.81564E-01  0.12304E+00
 Y  0.81564E-01  0.45945E+00  0.34913E-01
 Z  0.12304E+00  0.34913E-01  0.51169E+00
 TENSOR EIGENVALUES:
 A  0.83073E+00  B  0.43820E+00  C  0.46091E+00
 PRINCIPAL AXES:
         X             Y             Z
 A  0.89867E+00  0.23241E+00  0.37200E+00
 B -0.19606E+00  0.97149E+00 -0.13329E+00
 C -0.39237E+00  0.46852E-01  0.91861E+00
 BONDING WANNIER FUNCTION BETWEEN ATOMS:
 A:   9 F (  0  0  0) X -0.444722E-16 Y  0.210685E+01 Z  0.345308E+01 (AU)
 B:   4 ZN(  1 -1  0) X  0.397391E+01 Y  0.238801E+01 Z  0.362288E+01 (AU)
 DISTANCE OF THE CENTROID FROM THE ATOMS A,B AND FROM THE A-B BOND:
  0.56558E+00  0.35026E+01  0.27268E+00
 POLARISATION FRACTION (0: COVALENT; 1: VERY IONIC)  0.75147E+00
 ATOMIC POPULATION DATA:
  9 F (  0  0  0)  0.9431   4 ZN(  1 -1  0)  0.0473
 A.O. POPULATIONS OF ATOM    9(  0  0  0):
   0.0015  -0.0078   0.0683   0.1156   0.0759   0.1472   0.0228   0.0526
   0.1438   0.0221   0.0509   0.1690   0.0247   0.0566   0.0000   0.0000
  -0.0000   0.0000   0.0000
 A.O. POPULATIONS OF ATOM    4(  1 -1  0):
  -0.0000   0.0000   0.0001  -0.0009   0.0008   0.0189   0.0264   0.0000
   0.0002   0.0000  -0.0000   0.0000   0.0002   0.0000   0.0000   0.0000
   0.0000  -0.0000   0.0002   0.0000   0.0000   0.0006   0.0000  -0.0000
   0.0000   0.0000  -0.0000   0.0000   0.0001   0.0000   0.0000   0.0006
  -0.0000
~~~~~~~~~~~~~~~~~~~~~~~~~~~~~~~~~~~~~~~~~~~~~~~~~~~~~~~~~~~~~~~~~~~~~~~~~~~~~~~~
 WANNIER NUMBER   36 ATOMIC EXTENT  1.1214
 CENTROID'S COORDINATES R0:    0.47308E+00   -0.22804E+01   -0.18335E+01
 EXPECTATION VALUE OF (R-R0)**2:  0.17274E+01
 SECOND ORDER TENSOR IN CARTESIAN AXES:
         X             Y             Z
 X  0.75930E+00 -0.81174E-01  0.12419E+00
 Y -0.81174E-01  0.45903E+00 -0.34040E-01
 Z  0.12419E+00 -0.34040E-01  0.50911E+00
 TENSOR EIGENVALUES:
 A  0.83129E+00  B  0.43821E+00  C  0.45795E+00
 PRINCIPAL AXES:
         X             Y             Z
 A  0.89963E+00 -0.23011E+00  0.37109E+00
 B  0.20243E+00  0.97282E+00  0.11248E+00
 C -0.38689E+00 -0.26076E-01  0.92176E+00
 BONDING WANNIER FUNCTION BETWEEN ATOMS:
 A:  10 F (  0  0  0) X  0.444722E-16 Y -0.210685E+01 Z -0.208852E+01 (AU)
 B:   3 ZN(  1 -1  0) X  0.397391E+01 Y -0.238801E+01 Z -0.191872E+01 (AU)
 DISTANCE OF THE CENTROID FROM THE ATOMS A,B AND FROM THE A-B BOND:
  0.56475E+00  0.35035E+01  0.27267E+00
 POLARISATION FRACTION (0: COVALENT; 1: VERY IONIC)  0.75194E+00
 ATOMIC POPULATION DATA:
 10 F (  0  0  0)  0.9431   3 ZN(  1 -1  0)  0.0472
 A.O. POPULATIONS OF ATOM   10(  0  0  0):
   0.0015  -0.0078   0.0681   0.1154   0.0757   0.1471   0.0227   0.0530
   0.1438   0.0221   0.0511   0.1690   0.0246   0.0569   0.0000   0.0000
  -0.0000   0.0000   0.0000
 A.O. POPULATIONS OF ATOM    3(  1 -1  0):
  -0.0000   0.0000   0.0001  -0.0009   0.0008   0.0189   0.0263   0.0000
   0.0002   0.0000   0.0000   0.0000   0.0002  -0.0000   0.0000   0.0000
   0.0000  -0.0000   0.0002   0.0000   0.0000   0.0006   0.0000  -0.0000
   0.0000   0.0000  -0.0000   0.0000   0.0001   0.0000   0.0000   0.0006
  -0.0000
~~~~~~~~~~~~~~~~~~~~~~~~~~~~~~~~~~~~~~~~~~~~~~~~~~~~~~~~~~~~~~~~~~~~~~~~~~~~~~~~
 WANNIER NUMBER   37 ATOMIC EXTENT  0.9905
 CENTROID'S COORDINATES R0:   -0.13136E-01   -0.36824E+01    0.32690E+01
 EXPECTATION VALUE OF (R-R0)**2:  0.31467E+01
 SECOND ORDER TENSOR IN CARTESIAN AXES:
         X             Y             Z
 X  0.88631E+00 -0.29153E-02  0.76887E-02
 Y -0.29153E-02  0.98445E+00 -0.18771E+00
 Z  0.76887E-02 -0.18771E+00  0.12759E+01
 TENSOR EIGENVALUES:
 A  0.88608E+00  B  0.89264E+00  C  0.13680E+01
 PRINCIPAL AXES:
         X             Y             Z
 A  0.99297E+00 -0.97780E-01 -0.66664E-01
 B  0.11712E+00  0.89283E+00  0.43490E+00
 C  0.16995E-01 -0.43965E+00  0.89801E+00
 NON BONDING WANNIER FUNCTION
 DISTANCE CENTROID-ATOM    2(  0  0  0) :   0.89998E+00
 ATOMIC POPULATION DATA:
  2 BA(  0  0  0)  1.0048
 A.O. POPULATIONS OF ATOM    2(  0  0  0):
   0.0337   0.2183  -0.0018   0.0000   0.0241   0.0980   0.0002   0.1220
   0.5101   0.0000   0.0000   0.0000   0.0000   0.0000   0.0000   0.0000
   0.0001   0.0000   0.0000
~~~~~~~~~~~~~~~~~~~~~~~~~~~~~~~~~~~~~~~~~~~~~~~~~~~~~~~~~~~~~~~~~~~~~~~~~~~~~~~~
 WANNIER NUMBER   38 ATOMIC EXTENT  0.9865
 CENTROID'S COORDINATES R0:    0.71960E+00   -0.45804E+01    0.41457E+01
 EXPECTATION VALUE OF (R-R0)**2:  0.31649E+01
 SECOND ORDER TENSOR IN CARTESIAN AXES:
         X             Y             Z
 X  0.12156E+01 -0.22878E+00  0.33169E-01
 Y -0.22878E+00  0.10561E+01 -0.22816E-01
 Z  0.33169E-01 -0.22816E-01  0.89316E+00
 TENSOR EIGENVALUES:
 A  0.13814E+01  B  0.89367E+00  C  0.88975E+00
 PRINCIPAL AXES:
         X             Y             Z
 A  0.81250E+00 -0.57715E+00  0.82161E-01
 B  0.56135E+00  0.81258E+00  0.15684E+00
 C -0.15728E+00 -0.81313E-01  0.98420E+00
 NON BONDING WANNIER FUNCTION
 DISTANCE CENTROID-ATOM    2(  0  0  0) :   0.87338E+00
 ATOMIC POPULATION DATA:
  2 BA(  0  0  0)  1.0068
 A.O. POPULATIONS OF ATOM    2(  0  0  0):
   0.0345   0.2264  -0.0075   0.0801   0.0378   0.0008   0.4276   0.2029
   0.0042   0.0000   0.0000   0.0000   0.0000   0.0000  -0.0000   0.0000
   0.0000   0.0000   0.0000
~~~~~~~~~~~~~~~~~~~~~~~~~~~~~~~~~~~~~~~~~~~~~~~~~~~~~~~~~~~~~~~~~~~~~~~~~~~~~~~~
 WANNIER NUMBER   39 ATOMIC EXTENT  0.9858
 CENTROID'S COORDINATES R0:   -0.71293E+00   -0.45804E+01    0.41699E+01
 EXPECTATION VALUE OF (R-R0)**2:  0.31607E+01
 SECOND ORDER TENSOR IN CARTESIAN AXES:
         X             Y             Z
 X  0.12099E+01  0.22664E+00 -0.40953E-01
 Y  0.22664E+00  0.10558E+01 -0.33733E-01
 Z -0.40953E-01 -0.33733E-01  0.89505E+00
 TENSOR EIGENVALUES:
 A  0.13780E+01  B  0.89548E+00  C  0.88722E+00
 PRINCIPAL AXES:
         X             Y             Z
 A  0.80765E+00  0.57951E+00 -0.10896E+00
 B -0.55033E+00  0.67444E+00 -0.49221E+00
 C -0.21175E+00  0.45750E+00  0.86363E+00
 NON BONDING WANNIER FUNCTION
 DISTANCE CENTROID-ATOM    2(  0  0  0) :   0.87032E+00
 ATOMIC POPULATION DATA:
  2 BA(  0  0  0)  1.0071
 A.O. POPULATIONS OF ATOM    2(  0  0  0):
   0.0347   0.2279  -0.0086   0.0796   0.0382   0.0015   0.4228   0.2035
   0.0076   0.0000   0.0000   0.0000   0.0000   0.0000   0.0000   0.0000
   0.0000   0.0000   0.0000
~~~~~~~~~~~~~~~~~~~~~~~~~~~~~~~~~~~~~~~~~~~~~~~~~~~~~~~~~~~~~~~~~~~~~~~~~~~~~~~~
 WANNIER NUMBER   40 ATOMIC EXTENT  0.9882
 CENTROID'S COORDINATES R0:   -0.24944E-01    0.34529E+01   -0.85583E+00
 EXPECTATION VALUE OF (R-R0)**2:  0.31644E+01
 SECOND ORDER TENSOR IN CARTESIAN AXES:
         X             Y             Z
 X  0.89065E+00  0.12439E-01 -0.95114E-02
 Y  0.12439E-01  0.11368E+01 -0.24147E+00
 Z -0.95114E-02 -0.24147E+00  0.11369E+01
 TENSOR EIGENVALUES:
 A  0.88943E+00  B  0.89611E+00  C  0.13788E+01
 PRINCIPAL AXES:
         X             Y             Z
 A  0.94409E+00 -0.25337E+00 -0.21093E+00
 B  0.32814E+00  0.66053E+00  0.67530E+00
 C -0.31779E-01 -0.70676E+00  0.70674E+00
 NON BONDING WANNIER FUNCTION
 DISTANCE CENTROID-ATOM    1(  0  0  0) :   0.88677E+00
 ATOMIC POPULATION DATA:
  1 BA(  0  0  0)  1.0059
 A.O. POPULATIONS OF ATOM    1(  0  0  0):
   0.0328   0.2118  -0.0014   0.0001   0.0618   0.0587   0.0006   0.3252
   0.3163   0.0000   0.0000   0.0000   0.0000   0.0000   0.0000   0.0000
   0.0000   0.0000   0.0000
~~~~~~~~~~~~~~~~~~~~~~~~~~~~~~~~~~~~~~~~~~~~~~~~~~~~~~~~~~~~~~~~~~~~~~~~~~~~~~~~
 WANNIER NUMBER   41 ATOMIC EXTENT  0.9864
 CENTROID'S COORDINATES R0:   -0.70724E+00    0.45917E+01   -0.13967E+01
 EXPECTATION VALUE OF (R-R0)**2:  0.31665E+01
 SECOND ORDER TENSOR IN CARTESIAN AXES:
         X             Y             Z
 X  0.12089E+01 -0.23109E+00 -0.33676E-01
 Y -0.23109E+00  0.10626E+01  0.27574E-01
 Z -0.33676E-01  0.27574E-01  0.89499E+00
 TENSOR EIGENVALUES:
 A  0.13820E+01  B  0.89483E+00  C  0.88964E+00
 PRINCIPAL AXES:
         X             Y             Z
 A  0.80332E+00 -0.58887E+00 -0.88887E-01
 B  0.53854E+00  0.65457E+00  0.53059E+00
 C -0.25426E+00 -0.47410E+00  0.84296E+00
 NON BONDING WANNIER FUNCTION
 DISTANCE CENTROID-ATOM    1(  0  0  0) :   0.86960E+00
 ATOMIC POPULATION DATA:
  1 BA(  0  0  0)  1.0069
 A.O. POPULATIONS OF ATOM    1(  0  0  0):
   0.0348   0.2286  -0.0089   0.0780   0.0398   0.0008   0.4166   0.2128
   0.0042   0.0000   0.0000   0.0000   0.0000   0.0000   0.0000   0.0000
   0.0000  -0.0000   0.0000
~~~~~~~~~~~~~~~~~~~~~~~~~~~~~~~~~~~~~~~~~~~~~~~~~~~~~~~~~~~~~~~~~~~~~~~~~~~~~~~~
 WANNIER NUMBER   42 ATOMIC EXTENT  0.9869
 CENTROID'S COORDINATES R0:    0.72446E+00    0.45664E+01   -0.13599E+01
 EXPECTATION VALUE OF (R-R0)**2:  0.31680E+01
 SECOND ORDER TENSOR IN CARTESIAN AXES:
         X             Y             Z
 X  0.12208E+01  0.22325E+00  0.49672E-01
 Y  0.22325E+00  0.10482E+01  0.34671E-01
 Z  0.49672E-01  0.34671E-01  0.89890E+00
 TENSOR EIGENVALUES:
 A  0.13815E+01  B  0.89525E+00  C  0.89124E+00
 PRINCIPAL AXES:
         X             Y             Z
 A  0.81829E+00  0.56115E+00  0.12454E+00
 B -0.57402E+00  0.80910E+00  0.12594E+00
 C -0.30098E-01 -0.17455E+00  0.98419E+00
 NON BONDING WANNIER FUNCTION
 DISTANCE CENTROID-ATOM    1(  0  0  0) :   0.87350E+00
 ATOMIC POPULATION DATA:
  1 BA(  0  0  0)  1.0066
 A.O. POPULATIONS OF ATOM    1(  0  0  0):
   0.0344   0.2255  -0.0072   0.0809   0.0358   0.0018   0.4336   0.1920
   0.0097   0.0000   0.0000   0.0000   0.0000   0.0000  -0.0000   0.0000
   0.0000   0.0000   0.0000
~~~~~~~~~~~~~~~~~~~~~~~~~~~~~~~~~~~~~~~~~~~~~~~~~~~~~~~~~~~~~~~~~~~~~~~~~~~~~~~~
 WANNIER NUMBER   43 ATOMIC EXTENT  0.9944
 CENTROID'S COORDINATES R0:   -0.39933E+01   -0.20671E+01   -0.15485E+01
 EXPECTATION VALUE OF (R-R0)**2:  0.57667E+00
 SECOND ORDER TENSOR IN CARTESIAN AXES:
         X             Y             Z
 X  0.13867E+00  0.16320E-02 -0.62073E-02
 Y  0.16320E-02  0.21163E+00  0.51515E-01
 Z -0.62073E-02  0.51515E-01  0.22638E+00
 TENSOR EIGENVALUES:
 A  0.13761E+00  B  0.16792E+00  C  0.27114E+00
 PRINCIPAL AXES:
         X             Y             Z
 A  0.98374E+00 -0.11671E+00  0.13652E+00
 B  0.17751E+00  0.74761E+00 -0.63997E+00
 C -0.27377E-01  0.65380E+00  0.75617E+00
 NON BONDING WANNIER FUNCTION
 DISTANCE CENTROID-ATOM    3(  0  0  0) :   0.49030E+00
 ATOMIC POPULATION DATA:
  3 ZN(  0  0  0)  1.0028
 A.O. POPULATIONS OF ATOM    3(  0  0  0):
  -0.0001  -0.0045   0.0726   0.0510   0.0015  -0.0013   0.0000  -0.0001
   0.0011  -0.0000  -0.0046  -0.0059   0.0001   0.1242   0.1613   0.0000
   0.0304   0.0409   0.0285   0.0001   0.2451   0.0199   0.0019   0.0172
   0.0001   0.1454   0.0116   0.0011   0.0070   0.0000   0.0538   0.0038
   0.0004
~~~~~~~~~~~~~~~~~~~~~~~~~~~~~~~~~~~~~~~~~~~~~~~~~~~~~~~~~~~~~~~~~~~~~~~~~~~~~~~~
 WANNIER NUMBER   44 ATOMIC EXTENT  0.9931
 CENTROID'S COORDINATES R0:   -0.39268E+01    0.28089E+01    0.33750E+01
 EXPECTATION VALUE OF (R-R0)**2:  0.57060E+00
 SECOND ORDER TENSOR IN CARTESIAN AXES:
         X             Y             Z
 X  0.14051E+00  0.14308E-01 -0.82642E-03
 Y  0.14308E-01  0.23952E+00 -0.47334E-01
 Z -0.82642E-03 -0.47334E-01  0.19058E+00
 TENSOR EIGENVALUES:
 A  0.13742E+00  B  0.26958E+00  C  0.16360E+00
 PRINCIPAL AXES:
         X             Y             Z
 A  0.95963E+00 -0.21729E+00 -0.17858E+00
 B  0.97869E-01  0.85324E+00 -0.51225E+00
 C  0.26368E+00  0.47409E+00  0.84006E+00
 NON BONDING WANNIER FUNCTION
 DISTANCE CENTROID-ATOM    4(  0  0  0) :   0.49067E+00
 ATOMIC POPULATION DATA:
  4 ZN(  0  0  0)  1.0035
 A.O. POPULATIONS OF ATOM    4(  0  0  0):
  -0.0001  -0.0045   0.0730   0.0515   0.0011  -0.0013   0.0000   0.0008
   0.0001  -0.0001  -0.0077  -0.0027   0.0036   0.2080   0.0751   0.0009
   0.0521   0.0186   0.0117   0.0050   0.1849   0.0916   0.0028   0.0069
   0.0030   0.1093   0.0543   0.0017   0.0026   0.0012   0.0396   0.0196
   0.0007
~~~~~~~~~~~~~~~~~~~~~~~~~~~~~~~~~~~~~~~~~~~~~~~~~~~~~~~~~~~~~~~~~~~~~~~~~~~~~~~~
 WANNIER NUMBER   45 ATOMIC EXTENT  0.9990
 CENTROID'S COORDINATES R0:   -0.39628E+01    0.19057E+01    0.35322E+01
 EXPECTATION VALUE OF (R-R0)**2:  0.59555E+00
 SECOND ORDER TENSOR IN CARTESIAN AXES:
         X             Y             Z
 X  0.14711E+00 -0.76179E-04 -0.12953E-01
 Y -0.76179E-04  0.27760E+00  0.21171E-01
 Z -0.12953E-01  0.21171E-01  0.17084E+00
 TENSOR EIGENVALUES:
 A  0.14084E+00  B  0.28169E+00  C  0.17302E+00
 PRINCIPAL AXES:
         X             Y             Z
 A  0.89799E+00 -0.66826E-01  0.43491E+00
 B -0.18812E-01  0.98167E+00  0.18968E+00
 C -0.43961E+00 -0.17851E+00  0.88027E+00
 NON BONDING WANNIER FUNCTION
 DISTANCE CENTROID-ATOM    4(  0  0  0) :   0.49085E+00
 ATOMIC POPULATION DATA:
  4 ZN(  0  0  0)  1.0005
 A.O. POPULATIONS OF ATOM    4(  0  0  0):
  -0.0001  -0.0043   0.0709   0.0503   0.0011  -0.0004   0.0000   0.0010
   0.0003  -0.0000  -0.0097  -0.0004   0.0000   0.2727   0.0101   0.0000
   0.0687   0.0026   0.0721   0.0036   0.0317   0.1845   0.0011   0.0435
   0.0022   0.0192   0.1104   0.0007   0.0176   0.0009   0.0079   0.0421
   0.0003
~~~~~~~~~~~~~~~~~~~~~~~~~~~~~~~~~~~~~~~~~~~~~~~~~~~~~~~~~~~~~~~~~~~~~~~~~~~~~~~~
 WANNIER NUMBER   46 ATOMIC EXTENT  1.0334
 CENTROID'S COORDINATES R0:   -0.39740E+01   -0.59677E+01   -0.38559E+01
 EXPECTATION VALUE OF (R-R0)**2:  0.16799E+01
 SECOND ORDER TENSOR IN CARTESIAN AXES:
         X             Y             Z
 X  0.42296E+00  0.10551E-03  0.67110E-04
 Y  0.10551E-03  0.73946E+00 -0.19332E+00
 Z  0.67110E-04 -0.19332E+00  0.51748E+00
 TENSOR EIGENVALUES:
 A  0.42296E+00  B  0.85139E+00  C  0.40556E+00
 PRINCIPAL AXES:
         X             Y             Z
 A  0.99998E+00  0.30778E-02  0.55847E-02
 B  0.13464E-03  0.86542E+00 -0.50105E+00
 C -0.63752E-02  0.50104E+00  0.86540E+00
 NON BONDING WANNIER FUNCTION
 DISTANCE CENTROID-ATOM    5(  0  0  0) :   0.55679E+00
 ATOMIC POPULATION DATA:
  5 F (  0  0  0)  0.9837   1 BA( -1  0  0)  0.0112
 A.O. POPULATIONS OF ATOM    5(  0  0  0):
   0.0014  -0.0085   0.0734   0.1177   0.0858   0.0000   0.1763   0.0615
   0.0000   0.1668   0.0576   0.0000   0.1872   0.0644   0.0000   0.0000
   0.0000   0.0000   0.0000
 A.O. POPULATIONS OF ATOM    1( -1  0  0):
  -0.0000  -0.0016   0.0055   0.0000  -0.0014  -0.0008   0.0000  -0.0006
  -0.0002   0.0000   0.0000   0.0005   0.0003   0.0000   0.0001   0.0000
   0.0058   0.0037   0.0000
~~~~~~~~~~~~~~~~~~~~~~~~~~~~~~~~~~~~~~~~~~~~~~~~~~~~~~~~~~~~~~~~~~~~~~~~~~~~~~~~
 WANNIER NUMBER   47 ATOMIC EXTENT  0.9990
 CENTROID'S COORDINATES R0:   -0.43929E+01    0.24239E+01    0.33690E+01
 EXPECTATION VALUE OF (R-R0)**2:  0.59475E+00
 SECOND ORDER TENSOR IN CARTESIAN AXES:
         X             Y             Z
 X  0.25958E+00 -0.66968E-02  0.53809E-01
 Y -0.66968E-02  0.13771E+00 -0.95454E-02
 Z  0.53809E-01 -0.95454E-02  0.19745E+00
 TENSOR EIGENVALUES:
 A  0.29138E+00  B  0.13619E+00  C  0.16718E+00
 PRINCIPAL AXES:
         X             Y             Z
 A  0.86261E+00 -0.68727E-01  0.50117E+00
 B -0.21826E-01  0.98475E+00  0.17261E+00
 C -0.50539E+00 -0.15983E+00  0.84796E+00
 NON BONDING WANNIER FUNCTION
 DISTANCE CENTROID-ATOM    4(  0  0  0) :   0.49124E+00
 ATOMIC POPULATION DATA:
  4 ZN(  0  0  0)  1.0005
 A.O. POPULATIONS OF ATOM    4(  0  0  0):
  -0.0001  -0.0042   0.0689   0.0488   0.0017   0.0010   0.0004   0.0000
   0.0001  -0.0073  -0.0000  -0.0028   0.2074   0.0008   0.0785   0.0520
   0.0002   0.0196   0.0096   0.1934   0.0002   0.0849   0.0045   0.0057
   0.1162   0.0001   0.0504   0.0027   0.0020   0.0463   0.0001   0.0184
   0.0011
~~~~~~~~~~~~~~~~~~~~~~~~~~~~~~~~~~~~~~~~~~~~~~~~~~~~~~~~~~~~~~~~~~~~~~~~~~~~~~~~
 WANNIER NUMBER   48 ATOMIC EXTENT  1.1601
 CENTROID'S COORDINATES R0:   -0.39738E+01   -0.41990E+01    0.62135E+00
 EXPECTATION VALUE OF (R-R0)**2:  0.17151E+01
 SECOND ORDER TENSOR IN CARTESIAN AXES:
         X             Y             Z
 X  0.47145E+00  0.89187E-03 -0.74604E-04
 Y  0.89187E-03  0.58372E+00 -0.16504E+00
 Z -0.74604E-04 -0.16504E+00  0.65997E+00
 TENSOR EIGENVALUES:
 A  0.47147E+00  B  0.45243E+00  C  0.79123E+00
 PRINCIPAL AXES:
         X             Y             Z
 A  0.99941E+00  0.25613E-01  0.22821E-01
 B -0.34251E-01  0.78223E+00  0.62205E+00
 C -0.19186E-02 -0.62246E+00  0.78265E+00
 BONDING WANNIER FUNCTION BETWEEN ATOMS:
 A:   7 F (  0  0  0) X -0.397391E+01 Y -0.460281E+01 Z  0.109103E+01 (AU)
 B:   3 ZN(  0  0  0) X -0.397391E+01 Y -0.238801E+01 Z -0.191872E+01 (AU)
 DISTANCE OF THE CENTROID FROM THE ATOMS A,B AND FROM THE A-B BOND:
  0.61939E+00  0.31196E+01  0.46838E-01
 POLARISATION FRACTION (0: COVALENT; 1: VERY IONIC)  0.66945E+00
 ATOMIC POPULATION DATA:
  3 ZN(  0  0  0)  0.0708   7 F (  0  0  0)  0.9258
 A.O. POPULATIONS OF ATOM    3(  0  0  0):
  -0.0000  -0.0000   0.0009  -0.0019   0.0057   0.0257   0.0000   0.0109
   0.0260   0.0000  -0.0000  -0.0000  -0.0000   0.0003   0.0006   0.0000
   0.0000  -0.0000   0.0001   0.0000   0.0002   0.0000   0.0000  -0.0001
   0.0000  -0.0002  -0.0000   0.0000   0.0008   0.0000   0.0017   0.0002
   0.0000
 A.O. POPULATIONS OF ATOM    7(  0  0  0):
   0.0012  -0.0067   0.0568   0.1042   0.0592  -0.0000   0.0986   0.1342
   0.0000   0.0936   0.1279  -0.0000   0.1083   0.1486   0.0000   0.0000
   0.0001   0.0000   0.0000
~~~~~~~~~~~~~~~~~~~~~~~~~~~~~~~~~~~~~~~~~~~~~~~~~~~~~~~~~~~~~~~~~~~~~~~~~~~~~~~~
 WANNIER NUMBER   49 ATOMIC EXTENT  0.9978
 CENTROID'S COORDINATES R0:   -0.42443E+01    0.27047E+01    0.38781E+01
 EXPECTATION VALUE OF (R-R0)**2:  0.59091E+00
 SECOND ORDER TENSOR IN CARTESIAN AXES:
         X             Y             Z
 X  0.20113E+00 -0.38249E-01 -0.38354E-01
 Y -0.38249E-01  0.20969E+00  0.51558E-01
 Z -0.38354E-01  0.51558E-01  0.18009E+00
 TENSOR EIGENVALUES:
 A  0.16773E+00  B  0.28358E+00  C  0.13960E+00
 PRINCIPAL AXES:
         X             Y             Z
 A  0.81023E+00  0.56979E+00  0.13737E+00
 B -0.54690E+00  0.65066E+00  0.52683E+00
 C  0.21080E+00 -0.50197E+00  0.83880E+00
 NON BONDING WANNIER FUNCTION
 DISTANCE CENTROID-ATOM    4(  0  0  0) :   0.48837E+00
 ATOMIC POPULATION DATA:
  4 ZN(  0  0  0)  1.0011
 A.O. POPULATIONS OF ATOM    4(  0  0  0):
  -0.0001  -0.0043   0.0705   0.0499   0.0013   0.0002   0.0004  -0.0001
  -0.0001  -0.0031  -0.0044  -0.0030   0.0850   0.1198   0.0846   0.0212
   0.0296   0.0208   0.0000   0.0616   0.0819   0.0036   0.1439   0.0000
   0.0370   0.0485   0.0022   0.0865   0.0000   0.0147   0.0178   0.0009
   0.0341
~~~~~~~~~~~~~~~~~~~~~~~~~~~~~~~~~~~~~~~~~~~~~~~~~~~~~~~~~~~~~~~~~~~~~~~~~~~~~~~~
 WANNIER NUMBER   50 ATOMIC EXTENT  0.9972
 CENTROID'S COORDINATES R0:   -0.34977E+01    0.22941E+01    0.35380E+01
 EXPECTATION VALUE OF (R-R0)**2:  0.58186E+00
 SECOND ORDER TENSOR IN CARTESIAN AXES:
         X             Y             Z
 X  0.28289E+00 -0.23921E-01 -0.20542E-01
 Y -0.23921E-01  0.14368E+00  0.14689E-01
 Z -0.20542E-01  0.14689E-01  0.15530E+00
 TENSOR EIGENVALUES:
 A  0.29070E+00  B  0.13313E+00  C  0.15803E+00
 PRINCIPAL AXES:
         X             Y             Z
 A  0.97053E+00 -0.17451E+00 -0.16617E+00
 B  0.67770E-01  0.85943E+00 -0.50674E+00
 C  0.23124E+00  0.48055E+00  0.84593E+00
 NON BONDING WANNIER FUNCTION
 DISTANCE CENTROID-ATOM    4(  0  0  0) :   0.49275E+00
 ATOMIC POPULATION DATA:
  4 ZN(  0  0  0)  1.0014
 A.O. POPULATIONS OF ATOM    4(  0  0  0):
  -0.0000  -0.0043   0.0686   0.0486   0.0019   0.0015   0.0003  -0.0001
  -0.0000  -0.0099  -0.0003  -0.0003   0.2713   0.0094   0.0097   0.0676
   0.0023   0.0024   0.0752   0.0290   0.0009   0.1579   0.0302   0.0447
   0.0174   0.0005   0.0938   0.0181   0.0164   0.0069   0.0002   0.0342
   0.0071
~~~~~~~~~~~~~~~~~~~~~~~~~~~~~~~~~~~~~~~~~~~~~~~~~~~~~~~~~~~~~~~~~~~~~~~~~~~~~~~~
 WANNIER NUMBER   51 ATOMIC EXTENT  0.9989
 CENTROID'S COORDINATES R0:   -0.37863E+01   -0.24110E+01   -0.23709E+01
 EXPECTATION VALUE OF (R-R0)**2:  0.59406E+00
 SECOND ORDER TENSOR IN CARTESIAN AXES:
         X             Y             Z
 X  0.17231E+00  0.90130E-02 -0.46031E-01
 Y  0.90130E-02  0.15613E+00  0.85476E-02
 Z -0.46031E-01  0.85476E-02  0.26562E+00
 TENSOR EIGENVALUES:
 A  0.14305E+00  B  0.16634E+00  C  0.28466E+00
 PRINCIPAL AXES:
         X             Y             Z
 A  0.68095E+00 -0.66705E+00  0.30226E+00
 B  0.62815E+00  0.74419E+00  0.22719E+00
 C -0.37648E+00  0.35164E-01  0.92576E+00
 NON BONDING WANNIER FUNCTION
 DISTANCE CENTROID-ATOM    3(  0  0  0) :   0.49010E+00
 ATOMIC POPULATION DATA:
  3 ZN(  0  0  0)  1.0005
 A.O. POPULATIONS OF ATOM    3(  0  0  0):
  -0.0001  -0.0044   0.0711   0.0502   0.0013  -0.0001   0.0001  -0.0000
   0.0001  -0.0014  -0.0000  -0.0090   0.0391   0.0004   0.2480   0.0098
   0.0001   0.0619   0.1736   0.1058   0.0001   0.0044   0.0070   0.1038
   0.0636   0.0001   0.0027   0.0042   0.0398   0.0253   0.0001   0.0012
   0.0017
~~~~~~~~~~~~~~~~~~~~~~~~~~~~~~~~~~~~~~~~~~~~~~~~~~~~~~~~~~~~~~~~~~~~~~~~~~~~~~~~
 WANNIER NUMBER   52 ATOMIC EXTENT  0.9994
 CENTROID'S COORDINATES R0:   -0.42804E+01   -0.25635E+01   -0.22132E+01
 EXPECTATION VALUE OF (R-R0)**2:  0.65447E+00
 SECOND ORDER TENSOR IN CARTESIAN AXES:
         X             Y             Z
 X  0.24661E+00  0.29729E-01  0.63294E-01
 Y  0.29729E-01  0.18282E+00  0.54241E-01
 Z  0.63294E-01  0.54241E-01  0.22505E+00
 TENSOR EIGENVALUES:
 A  0.32415E+00  B  0.18660E+00  C  0.14373E+00
 PRINCIPAL AXES:
         X             Y             Z
 A  0.66769E+00  0.38499E+00  0.63716E+00
 B -0.72360E+00  0.53672E+00  0.43397E+00
 C -0.17490E+00 -0.75081E+00  0.63694E+00
 NON BONDING WANNIER FUNCTION
 DISTANCE CENTROID-ATOM    3(  0  0  0) :   0.45982E+00
 ATOMIC POPULATION DATA:
  3 ZN(  0  0  0)  1.0003
 A.O. POPULATIONS OF ATOM    3(  0  0  0):
  -0.0000  -0.0037   0.0589   0.0415   0.0013  -0.0001   0.0004   0.0002
  -0.0001  -0.0040  -0.0013  -0.0039   0.1091   0.0361   0.1039   0.0273
   0.0091   0.0255   0.0062   0.1883   0.0320   0.0126   0.0875   0.0038
   0.1131   0.0190   0.0075   0.0526   0.0016   0.0450   0.0073   0.0029
   0.0209
~~~~~~~~~~~~~~~~~~~~~~~~~~~~~~~~~~~~~~~~~~~~~~~~~~~~~~~~~~~~~~~~~~~~~~~~~~~~~~~~
 WANNIER NUMBER   53 ATOMIC EXTENT  1.1435
 CENTROID'S COORDINATES R0:   -0.39749E+01   -0.29344E+00    0.53141E+01
 EXPECTATION VALUE OF (R-R0)**2:  0.16826E+01
 SECOND ORDER TENSOR IN CARTESIAN AXES:
         X             Y             Z
 X  0.45184E+00 -0.98771E-03  0.47885E-03
 Y -0.98771E-03  0.73917E+00 -0.11971E+00
 Z  0.47885E-03 -0.11971E+00  0.49163E+00
 TENSOR EIGENVALUES:
 A  0.45183E+00  B  0.78759E+00  C  0.44321E+00
 PRINCIPAL AXES:
         X             Y             Z
 A  0.99996E+00  0.62227E-02  0.66853E-02
 B -0.32619E-02  0.92703E+00 -0.37497E+00
 C -0.85308E-02  0.37494E+00  0.92701E+00
 BONDING WANNIER FUNCTION BETWEEN ATOMS:
 A:  11 F (  0  0  0) X -0.397391E+01 Y -0.863835E+00 Z  0.550414E+01 (AU)
 B:   4 ZN(  0  0  0) X -0.397391E+01 Y  0.238801E+01 Z  0.362288E+01 (AU)
 DISTANCE OF THE CENTROID FROM THE ATOMS A,B AND FROM THE A-B BOND:
  0.60121E+00  0.31703E+01  0.12118E+00
 POLARISATION FRACTION (0: COVALENT; 1: VERY IONIC)  0.68651E+00
 ATOMIC POPULATION DATA:
  4 ZN(  0  0  0)  0.0621  11 F (  0  0  0)  0.9331
 A.O. POPULATIONS OF ATOM    4(  0  0  0):
  -0.0000   0.0000   0.0008  -0.0017   0.0048   0.0233  -0.0000   0.0216
   0.0102  -0.0000  -0.0000  -0.0000   0.0000   0.0006   0.0002   0.0000
   0.0001  -0.0000   0.0000   0.0000   0.0002   0.0001   0.0000  -0.0000
   0.0000  -0.0002  -0.0001   0.0000   0.0000   0.0000   0.0014   0.0008
   0.0000
 A.O. POPULATIONS OF ATOM   11(  0  0  0):
   0.0014  -0.0075   0.0637   0.1157   0.0662   0.0000   0.2034   0.0194
   0.0000   0.1990   0.0184   0.0000   0.2308   0.0224   0.0000   0.0000
   0.0000   0.0000  -0.0000
~~~~~~~~~~~~~~~~~~~~~~~~~~~~~~~~~~~~~~~~~~~~~~~~~~~~~~~~~~~~~~~~~~~~~~~~~~~~~~~~
 WANNIER NUMBER   54 ATOMIC EXTENT  1.1199
 CENTROID'S COORDINATES R0:   -0.46563E+00    0.22856E+01    0.37160E+01
 EXPECTATION VALUE OF (R-R0)**2:  0.17125E+01
 SECOND ORDER TENSOR IN CARTESIAN AXES:
         X             Y             Z
 X  0.74083E+00 -0.83382E-01 -0.12555E+00
 Y -0.83382E-01  0.45811E+00  0.38007E-01
 Z -0.12555E+00  0.38007E-01  0.51361E+00
 TENSOR EIGENVALUES:
 A  0.81975E+00  B  0.43486E+00  C  0.45793E+00
 PRINCIPAL AXES:
         X             Y             Z
 A  0.88580E+00 -0.24561E+00 -0.39374E+00
 B  0.20861E+00  0.96865E+00 -0.13494E+00
 C  0.41454E+00  0.37391E-01  0.90926E+00
 BONDING WANNIER FUNCTION BETWEEN ATOMS:
 A:   9 F (  0  0  0) X -0.444722E-16 Y  0.210685E+01 Z  0.345308E+01 (AU)
 B:   4 ZN(  0  0  0) X -0.397391E+01 Y  0.238801E+01 Z  0.362288E+01 (AU)
 DISTANCE OF THE CENTROID FROM THE ATOMS A,B AND FROM THE A-B BOND:
  0.56382E+00  0.35110E+01  0.28265E+00
 POLARISATION FRACTION (0: COVALENT; 1: VERY IONIC)  0.75531E+00
 ATOMIC POPULATION DATA:
  4 ZN(  0  0  0)  0.0469   9 F (  0  0  0)  0.9437
 A.O. POPULATIONS OF ATOM    4(  0  0  0):
  -0.0000   0.0000   0.0004  -0.0007   0.0007   0.0183   0.0259   0.0000
   0.0002  -0.0000   0.0000  -0.0000   0.0005   0.0000   0.0000  -0.0001
[...]
   0.0000   0.1290   0.0957   0.0000   0.1494   0.1103  -0.0000   0.0000
   0.0001   0.0000   0.0000
~~~~~~~~~~~~~~~~~~~~~~~~~~~~~~~~~~~~~~~~~~~~~~~~~~~~~~~~~~~~~~~~~~~~~~~~~~~~~~~~
 WANNIER NUMBER   63 ATOMIC EXTENT  1.0291
 CENTROID'S COORDINATES R0:   -0.35337E+01   -0.11122E+01    0.53163E+01
 EXPECTATION VALUE OF (R-R0)**2:  0.15638E+01
 SECOND ORDER TENSOR IN CARTESIAN AXES:
         X             Y             Z
 X  0.62287E+00 -0.13896E+00 -0.94287E-01
 Y -0.13896E+00  0.49722E+00  0.50187E-01
 Z -0.94287E-01  0.50187E-01  0.44368E+00
 TENSOR EIGENVALUES:
 A  0.74961E+00  B  0.41556E+00  C  0.39861E+00
 PRINCIPAL AXES:
         X             Y             Z
 A  0.79814E+00 -0.50483E+00 -0.32881E+00
 B  0.19791E+00  0.73517E+00 -0.64835E+00
 C  0.56904E+00  0.45240E+00  0.68668E+00
 NON BONDING WANNIER FUNCTION
 DISTANCE CENTROID-ATOM   11(  0  0  0) :   0.53919E+00
 ATOMIC POPULATION DATA:
 11 F (  0  0  0)  0.9857
 A.O. POPULATIONS OF ATOM   11(  0  0  0):
   0.0011  -0.0078   0.0673   0.1060   0.0812   0.1603   0.0514   0.0293
   0.1562   0.0493   0.0287   0.1753   0.0550   0.0323   0.0000   0.0000
   0.0000   0.0000  -0.0000
~~~~~~~~~~~~~~~~~~~~~~~~~~~~~~~~~~~~~~~~~~~~~~~~~~~~~~~~~~~~~~~~~~~~~~~~~~~~~~~~
 WANNIER NUMBER   64 ATOMIC EXTENT  1.0282
 CENTROID'S COORDINATES R0:   -0.44157E+01   -0.11172E+01    0.53153E+01
 EXPECTATION VALUE OF (R-R0)**2:  0.15940E+01
 SECOND ORDER TENSOR IN CARTESIAN AXES:
         X             Y             Z
 X  0.63731E+00  0.15591E+00  0.99284E-01
 Y  0.15591E+00  0.51205E+00  0.55937E-01
 Z  0.99284E-01  0.55937E-01  0.44462E+00
 TENSOR EIGENVALUES:
 A  0.78107E+00  B  0.41523E+00  C  0.39768E+00
 PRINCIPAL AXES:
         X             Y             Z
 A  0.78930E+00  0.52400E+00  0.32004E+00
 B -0.21008E+00  0.72025E+00 -0.66114E+00
 C -0.57694E+00  0.45461E+00  0.67858E+00
 NON BONDING WANNIER FUNCTION
 DISTANCE CENTROID-ATOM   11(  0  0  0) :   0.54320E+00
 ATOMIC POPULATION DATA:
 11 F (  0  0  0)  0.9862
 A.O. POPULATIONS OF ATOM   11(  0  0  0):
   0.0012  -0.0079   0.0680   0.1070   0.0820   0.1584   0.0522   0.0292
   0.1550   0.0503   0.0286   0.1738   0.0561   0.0322   0.0000   0.0000
   0.0000   0.0000   0.0000
~~~~~~~~~~~~~~~~~~~~~~~~~~~~~~~~~~~~~~~~~~~~~~~~~~~~~~~~~~~~~~~~~~~~~~~~~~~~~~~~
 WANNIER NUMBER   65 ATOMIC EXTENT  1.0314
 CENTROID'S COORDINATES R0:   -0.44264E+01    0.54341E+01    0.10847E+01
 EXPECTATION VALUE OF (R-R0)**2:  0.16598E+01
 SECOND ORDER TENSOR IN CARTESIAN AXES:
         X             Y             Z
 X  0.67364E+00  0.38447E-01  0.18961E+00
 Y  0.38447E-01  0.43441E+00  0.39607E-01
 Z  0.18961E+00  0.39607E-01  0.55179E+00
 TENSOR EIGENVALUES:
 A  0.81956E+00  B  0.43151E+00  C  0.40877E+00
 PRINCIPAL AXES:
         X             Y             Z
 A  0.79821E+00  0.13993E+00  0.58590E+00
 B -0.37180E+00  0.87972E+00  0.29642E+00
 C -0.47395E+00 -0.45444E+00  0.75423E+00
 NON BONDING WANNIER FUNCTION
 DISTANCE CENTROID-ATOM    6(  0  0  0) :   0.55315E+00
 ATOMIC POPULATION DATA:
  6 F (  0  0  0)  0.9846   1 BA( -1  1  0)  0.0107
 A.O. POPULATIONS OF ATOM    6(  0  0  0):
   0.0013  -0.0080   0.0697   0.1078   0.0858   0.1620   0.0017   0.0789
   0.1532   0.0014   0.0745   0.1715   0.0016   0.0834   0.0000   0.0000
   0.0000  -0.0000   0.0000
 A.O. POPULATIONS OF ATOM    1( -1  1  0):
  -0.0000  -0.0013   0.0053  -0.0008   0.0000  -0.0004  -0.0003  -0.0001
  -0.0002   0.0000   0.0003   0.0001   0.0001   0.0001   0.0000   0.0042
   0.0008   0.0014   0.0015
~~~~~~~~~~~~~~~~~~~~~~~~~~~~~~~~~~~~~~~~~~~~~~~~~~~~~~~~~~~~~~~~~~~~~~~~~~~~~~~~
 WANNIER NUMBER   66 ATOMIC EXTENT  1.0339
 CENTROID'S COORDINATES R0:   -0.44302E+01    0.45106E+01   -0.41449E+01
 EXPECTATION VALUE OF (R-R0)**2:  0.16657E+01
 SECOND ORDER TENSOR IN CARTESIAN AXES:
         X             Y             Z
 X  0.68913E+00  0.35165E-01 -0.20099E+00
 Y  0.35165E-01  0.41027E+00 -0.25332E-01
 Z -0.20099E+00 -0.25332E-01  0.56633E+00
 TENSOR EIGENVALUES:
 A  0.84223E+00  B  0.40590E+00  C  0.41760E+00
 PRINCIPAL AXES:
         X             Y             Z
 A  0.79986E+00  0.99822E-01 -0.59183E+00
 B -0.10844E+00  0.99388E+00  0.21082E-01
 C  0.59032E+00  0.47314E-01  0.80578E+00
 NON BONDING WANNIER FUNCTION
 DISTANCE CENTROID-ATOM    8(  0  0  0) :   0.55686E+00
 ATOMIC POPULATION DATA:
  8 F (  0  0  0)  0.9834   1 BA( -1  1  0)  0.0115
 A.O. POPULATIONS OF ATOM    8(  0  0  0):
   0.0013  -0.0081   0.0707   0.1093   0.0875   0.1604   0.0058   0.0732
   0.1534   0.0054   0.0688   0.1722   0.0060   0.0774   0.0000   0.0000
   0.0000   0.0000   0.0000
 A.O. POPULATIONS OF ATOM    1( -1  1  0):
  -0.0000  -0.0016   0.0057  -0.0012  -0.0000  -0.0006  -0.0005  -0.0000
  -0.0003   0.0000   0.0005   0.0000   0.0002   0.0000   0.0000   0.0063
   0.0001   0.0027   0.0001
~~~~~~~~~~~~~~~~~~~~~~~~~~~~~~~~~~~~~~~~~~~~~~~~~~~~~~~~~~~~~~~~~~~~~~~~~~~~~~~~
 WANNIER NUMBER   67 ATOMIC EXTENT  1.1199
 CENTROID'S COORDINATES R0:   -0.46500E+00   -0.22851E+01   -0.18258E+01
 EXPECTATION VALUE OF (R-R0)**2:  0.17108E+01
 SECOND ORDER TENSOR IN CARTESIAN AXES:
         X             Y             Z
 X  0.74156E+00  0.83287E-01 -0.12722E+00
 Y  0.83287E-01  0.45753E+00 -0.37464E-01
 Z -0.12722E+00 -0.37464E-01  0.51166E+00
 TENSOR EIGENVALUES:
 A  0.82102E+00  B  0.43458E+00  C  0.45515E+00
 PRINCIPAL AXES:
         X             Y             Z
 A  0.88623E+00  0.24367E+00 -0.39397E+00
 B -0.21444E+00  0.96966E+00  0.11736E+00
 C  0.41062E+00 -0.19519E-01  0.91160E+00
 BONDING WANNIER FUNCTION BETWEEN ATOMS:
 A:  10 F (  0  0  0) X  0.444722E-16 Y -0.210685E+01 Z -0.208852E+01 (AU)
 B:   3 ZN(  0  0  0) X -0.397391E+01 Y -0.238801E+01 Z -0.191872E+01 (AU)
 DISTANCE OF THE CENTROID FROM THE ATOMS A,B AND FROM THE A-B BOND:
  0.56302E+00  0.35116E+01  0.28224E+00
 POLARISATION FRACTION (0: COVALENT; 1: VERY IONIC)  0.75565E+00
 ATOMIC POPULATION DATA:
  3 ZN(  0  0  0)  0.0467  10 F (  0  0  0)  0.9438
 A.O. POPULATIONS OF ATOM    3(  0  0  0):
  -0.0000   0.0000   0.0004  -0.0007   0.0007   0.0182   0.0259   0.0000
   0.0002  -0.0000   0.0000  -0.0000   0.0005   0.0000   0.0000  -0.0001
   0.0000  -0.0000   0.0001   0.0000   0.0000   0.0002   0.0000  -0.0000
  -0.0000   0.0000  -0.0001   0.0000   0.0003   0.0000   0.0000   0.0011
  -0.0000
 A.O. POPULATIONS OF ATOM   10(  0  0  0):
   0.0015  -0.0078   0.0679   0.1151   0.0754   0.1432   0.0240   0.0564
   0.1397   0.0234   0.0543   0.1642   0.0261   0.0605   0.0000   0.0000
  -0.0000   0.0000   0.0000
~~~~~~~~~~~~~~~~~~~~~~~~~~~~~~~~~~~~~~~~~~~~~~~~~~~~~~~~~~~~~~~~~~~~~~~~~~~~~~~~
 WANNIER NUMBER   68 ATOMIC EXTENT  1.0270
 CENTROID'S COORDINATES R0:   -0.31459E-02    0.15731E+01    0.34246E+01
 EXPECTATION VALUE OF (R-R0)**2:  0.15280E+01
 SECOND ORDER TENSOR IN CARTESIAN AXES:
         X             Y             Z
 X  0.42289E+00  0.20258E-02  0.35243E-03
 Y  0.20258E-02  0.70062E+00  0.20903E-02
 Z  0.35243E-03  0.20903E-02  0.40452E+00
 TENSOR EIGENVALUES:
 A  0.42288E+00  B  0.70065E+00  C  0.40450E+00
 PRINCIPAL AXES:
         X             Y             Z
 A  0.99980E+00 -0.74306E-02  0.18349E-01
 B  0.73020E-02  0.99995E+00  0.70670E-02
 C -0.18401E-01 -0.69317E-02  0.99981E+00
 NON BONDING WANNIER FUNCTION
 DISTANCE CENTROID-ATOM    9(  0  0  0) :   0.53455E+00
 ATOMIC POPULATION DATA:
  9 F (  0  0  0)  0.9868
 A.O. POPULATIONS OF ATOM    9(  0  0  0):
   0.0011  -0.0079   0.0668   0.1079   0.0770   0.0000   0.2434   0.0006
   0.0000   0.2354   0.0006   0.0000   0.2613   0.0006   0.0000   0.0000
   0.0000   0.0000   0.0000
~~~~~~~~~~~~~~~~~~~~~~~~~~~~~~~~~~~~~~~~~~~~~~~~~~~~~~~~~~~~~~~~~~~~~~~~~~~~~~~~
 WANNIER NUMBER   69 ATOMIC EXTENT  1.1442
 CENTROID'S COORDINATES R0:   -0.39755E+01    0.29358E+00   -0.22983E+00
 EXPECTATION VALUE OF (R-R0)**2:  0.16846E+01
 SECOND ORDER TENSOR IN CARTESIAN AXES:
         X             Y             Z
 X  0.45129E+00  0.16004E-02  0.76639E-03
 Y  0.16004E-02  0.74088E+00  0.12095E+00
 Z  0.76639E-03  0.12095E+00  0.49241E+00
 TENSOR EIGENVALUES:
 A  0.45128E+00  B  0.79004E+00  C  0.44326E+00
 PRINCIPAL AXES:
         X             Y             Z
 A  0.99990E+00 -0.98863E-02  0.10440E-01
 B  0.52286E-02  0.92641E+00  0.37648E+00
 C -0.13394E-01 -0.37639E+00  0.92637E+00
 BONDING WANNIER FUNCTION BETWEEN ATOMS:
 A:  12 F (  0  0  0) X -0.397391E+01 Y  0.863835E+00 Z -0.374612E-01 (AU)
 B:   3 ZN(  0  0  0) X -0.397391E+01 Y -0.238801E+01 Z -0.191872E+01 (AU)
 DISTANCE OF THE CENTROID FROM THE ATOMS A,B AND FROM THE A-B BOND:
  0.60183E+00  0.31691E+01  0.11906E+00
 POLARISATION FRACTION (0: COVALENT; 1: VERY IONIC)  0.68594E+00
 ATOMIC POPULATION DATA:
  3 ZN(  0  0  0)  0.0624  12 F (  0  0  0)  0.9328
 A.O. POPULATIONS OF ATOM    3(  0  0  0):
  -0.0000   0.0000   0.0008  -0.0017   0.0048   0.0233  -0.0000   0.0218
   0.0102   0.0000  -0.0000  -0.0000   0.0000   0.0006   0.0002   0.0000
   0.0001  -0.0000   0.0000   0.0000   0.0002   0.0001   0.0000  -0.0000
   0.0000  -0.0002  -0.0001   0.0000   0.0000  -0.0000   0.0016   0.0008
   0.0000
 A.O. POPULATIONS OF ATOM   12(  0  0  0):
   0.0014  -0.0074   0.0636   0.1155   0.0662   0.0000   0.2026   0.0199
   0.0000   0.1986   0.0190   0.0000   0.2303   0.0230   0.0000   0.0000
   0.0000   0.0000   0.0000
~~~~~~~~~~~~~~~~~~~~~~~~~~~~~~~~~~~~~~~~~~~~~~~~~~~~~~~~~~~~~~~~~~~~~~~~~~~~~~~~
 WANNIER NUMBER   70 ATOMIC EXTENT  1.0424
 CENTROID'S COORDINATES R0:   -0.36779E-02    0.23109E+01    0.29421E+01
 EXPECTATION VALUE OF (R-R0)**2:  0.16098E+01
 SECOND ORDER TENSOR IN CARTESIAN AXES:
         X             Y             Z
 X  0.42650E+00 -0.68428E-03  0.21396E-02
 Y -0.68428E-03  0.44924E+00 -0.12265E+00
 Z  0.21396E-02 -0.12265E+00  0.73411E+00
 TENSOR EIGENVALUES:
 A  0.42649E+00  B  0.40371E+00  C  0.77965E+00
 PRINCIPAL AXES:
         X             Y             Z
 A  0.99997E+00  0.64529E-02 -0.43822E-02
 B -0.45245E-02  0.93747E+00  0.34803E+00
 C  0.63540E-02 -0.34800E+00  0.93747E+00
 BONDING WANNIER FUNCTION BETWEEN ATOMS:
 A:   9 F (  0  0  0) X -0.444722E-16 Y  0.210685E+01 Z  0.345308E+01 (AU)
 B:   1 BA(  0  0  0) X -0.787649E-16 Y  0.409117E+01 Z -0.147096E+01 (AU)
 DISTANCE OF THE CENTROID FROM THE ATOMS A,B AND FROM THE A-B BOND:
  0.55025E+00  0.47586E+01  0.40505E-02
 POLARISATION FRACTION (0: COVALENT; 1: VERY IONIC)  0.79271E+00
 ATOMIC POPULATION DATA:
  1 BA(  0  0  0)  0.0105   9 F (  0  0  0)  0.9794
 A.O. POPULATIONS OF ATOM    1(  0  0  0):
   0.0000  -0.0008   0.0044   0.0000   0.0000   0.0008  -0.0000  -0.0001
  -0.0006   0.0003   0.0000   0.0001   0.0000   0.0000   0.0040   0.0000
   0.0021   0.0001   0.0000
 A.O. POPULATIONS OF ATOM    9(  0  0  0):
   0.0011  -0.0074   0.0631   0.1018   0.0758   0.0000   0.0328   0.2140
   0.0000   0.0312   0.2039   0.0000   0.0350   0.2279   0.0000  -0.0000
   0.0000   0.0000   0.0000
~~~~~~~~~~~~~~~~~~~~~~~~~~~~~~~~~~~~~~~~~~~~~~~~~~~~~~~~~~~~~~~~~~~~~~~~~~~~~~~~
 WANNIER NUMBER   71 ATOMIC EXTENT  1.0269
 CENTROID'S COORDINATES R0:   -0.30908E-02   -0.15737E+01   -0.21164E+01
 EXPECTATION VALUE OF (R-R0)**2:  0.15301E+01
 SECOND ORDER TENSOR IN CARTESIAN AXES:
         X             Y             Z
 X  0.42301E+00 -0.19647E-02  0.32462E-03
 Y -0.19647E-02  0.70218E+00 -0.85201E-03
 Z  0.32462E-03 -0.85201E-03  0.40491E+00
 TENSOR EIGENVALUES:
 A  0.42300E+00  B  0.70219E+00  C  0.40490E+00
 PRINCIPAL AXES:
         X             Y             Z
 A  0.99982E+00  0.70898E-02  0.17605E-01
 B -0.70403E-02  0.99997E+00 -0.28736E-02
 C -0.17625E-01  0.27491E-02  0.99984E+00
 NON BONDING WANNIER FUNCTION
 DISTANCE CENTROID-ATOM   10(  0  0  0) :   0.53389E+00
 ATOMIC POPULATION DATA:
 10 F (  0  0  0)  0.9868
 A.O. POPULATIONS OF ATOM   10(  0  0  0):
   0.0011  -0.0078   0.0666   0.1076   0.0768   0.0000   0.2436   0.0006
   0.0000   0.2356   0.0006   0.0000   0.2615   0.0006   0.0000  -0.0000
   0.0000   0.0000   0.0000
~~~~~~~~~~~~~~~~~~~~~~~~~~~~~~~~~~~~~~~~~~~~~~~~~~~~~~~~~~~~~~~~~~~~~~~~~~~~~~~~
 WANNIER NUMBER   72 ATOMIC EXTENT  1.1492
 CENTROID'S COORDINATES R0:   -0.39709E+01    0.50187E+01    0.17922E+01
 EXPECTATION VALUE OF (R-R0)**2:  0.17105E+01
 SECOND ORDER TENSOR IN CARTESIAN AXES:
         X             Y             Z
 X  0.45594E+00 -0.18289E-02  0.28494E-02
 Y -0.18289E-02  0.66054E+00 -0.15792E+00
 Z  0.28494E-02 -0.15792E+00  0.59401E+00
 TENSOR EIGENVALUES:
 A  0.45579E+00  B  0.78869E+00  C  0.46600E+00
 PRINCIPAL AXES:
         X             Y             Z
 A  0.99448E+00 -0.58359E-01 -0.87179E-01
 B -0.96628E-02  0.77651E+00 -0.63003E+00
 C  0.10446E+00  0.62740E+00  0.77166E+00
 BONDING WANNIER FUNCTION BETWEEN ATOMS:
 A:   6 F (  0  0  0) X -0.397391E+01 Y  0.549115E+01 Z  0.139770E+01 (AU)
 B:   4 ZN(  0  0  0) X -0.397391E+01 Y  0.238801E+01 Z  0.362288E+01 (AU)
 DISTANCE OF THE CENTROID FROM THE ATOMS A,B AND FROM THE A-B BOND:
  0.61549E+00  0.32050E+01  0.45369E-01
 POLARISATION FRACTION (0: COVALENT; 1: VERY IONIC)  0.67851E+00
 ATOMIC POPULATION DATA:
  4 ZN(  0  0  0)  0.0687   6 F (  0  0  0)  0.9303
 A.O. POPULATIONS OF ATOM    4(  0  0  0):
  -0.0000   0.0000   0.0008  -0.0015   0.0022   0.0299   0.0000   0.0221
   0.0122  -0.0000  -0.0000  -0.0000   0.0000   0.0005   0.0003   0.0000
   0.0000  -0.0000   0.0000   0.0000   0.0002   0.0001   0.0000   0.0000
   0.0000  -0.0002  -0.0001   0.0000  -0.0000   0.0000   0.0015   0.0008
   0.0000
 A.O. POPULATIONS OF ATOM    6(  0  0  0):
   0.0012  -0.0066   0.0561   0.1005   0.0605   0.0000   0.1352   0.0996
   0.0000   0.1291   0.0953   0.0000   0.1495   0.1098   0.0000   0.0000
   0.0001   0.0000   0.0000
~~~~~~~~~~~~~~~~~~~~~~~~~~~~~~~~~~~~~~~~~~~~~~~~~~~~~~~~~~~~~~~~~~~~~~~~~~~~~~~~
 WANNIER NUMBER   73 ATOMIC EXTENT  1.0292
 CENTROID'S COORDINATES R0:   -0.35329E+01    0.11124E+01   -0.22414E+00
 EXPECTATION VALUE OF (R-R0)**2:  0.15629E+01
 SECOND ORDER TENSOR IN CARTESIAN AXES:
         X             Y             Z
 X  0.62293E+00  0.13897E+00 -0.93419E-01
 Y  0.13897E+00  0.49724E+00 -0.50366E-01
 Z -0.93419E-01 -0.50366E-01  0.44271E+00
 TENSOR EIGENVALUES:
 A  0.74916E+00  B  0.41476E+00  C  0.39895E+00
 PRINCIPAL AXES:
         X             Y             Z
 A  0.79848E+00  0.50577E+00 -0.32654E+00
 B -0.20938E+00  0.74184E+00  0.63705E+00
 C  0.56444E+00 -0.44030E+00  0.69824E+00
 NON BONDING WANNIER FUNCTION
 DISTANCE CENTROID-ATOM   12(  0  0  0) :   0.53956E+00
 ATOMIC POPULATION DATA:
 12 F (  0  0  0)  0.9857
 A.O. POPULATIONS OF ATOM   12(  0  0  0):
   0.0011  -0.0078   0.0673   0.1060   0.0813   0.1607   0.0514   0.0289
   0.1565   0.0493   0.0283   0.1757   0.0551   0.0318   0.0000   0.0000
   0.0000   0.0000  -0.0000
~~~~~~~~~~~~~~~~~~~~~~~~~~~~~~~~~~~~~~~~~~~~~~~~~~~~~~~~~~~~~~~~~~~~~~~~~~~~~~~~
 WANNIER NUMBER   74 ATOMIC EXTENT  1.0355
 CENTROID'S COORDINATES R0:   -0.35220E+01   -0.45116E+01    0.13921E+01
 EXPECTATION VALUE OF (R-R0)**2:  0.16217E+01
 SECOND ORDER TENSOR IN CARTESIAN AXES:
         X             Y             Z
 X  0.66255E+00  0.32009E-01  0.17639E+00
 Y  0.32009E-01  0.41110E+00  0.22787E-01
 Z  0.17639E+00  0.22787E-01  0.54806E+00
 TENSOR EIGENVALUES:
 A  0.79478E+00  B  0.40706E+00  C  0.41987E+00
 PRINCIPAL AXES:
         X             Y             Z
 A  0.80476E+00  0.10187E+00  0.58479E+00
 B -0.10001E+00  0.99435E+00 -0.35583E-01
 C -0.58511E+00 -0.29851E-01  0.81040E+00
 NON BONDING WANNIER FUNCTION
 DISTANCE CENTROID-ATOM    7(  0  0  0) :   0.55061E+00
 ATOMIC POPULATION DATA:
  2 BA(  0  0  0)  0.0122   7 F (  0  0  0)  0.9826
 A.O. POPULATIONS OF ATOM    2(  0  0  0):
   0.0000  -0.0013   0.0055  -0.0006  -0.0000  -0.0002  -0.0007  -0.0000
  -0.0004   0.0000   0.0005   0.0000   0.0002   0.0000   0.0000   0.0063
   0.0001   0.0027   0.0001
 A.O. POPULATIONS OF ATOM    7(  0  0  0):
   0.0013  -0.0080   0.0696   0.1075   0.0864   0.1623   0.0058   0.0731
   0.1541   0.0054   0.0687   0.1732   0.0060   0.0773   0.0000  -0.0000
   0.0000   0.0000   0.0000
~~~~~~~~~~~~~~~~~~~~~~~~~~~~~~~~~~~~~~~~~~~~~~~~~~~~~~~~~~~~~~~~~~~~~~~~~~~~~~~~
 WANNIER NUMBER   75 ATOMIC EXTENT  0.9928
 CENTROID'S COORDINATES R0:   -0.38942E+01   -0.25989E+01   -0.15186E+01
 EXPECTATION VALUE OF (R-R0)**2:  0.62540E+00
 SECOND ORDER TENSOR IN CARTESIAN AXES:
         X             Y             Z
 X  0.16356E+00 -0.27071E-01  0.14612E-01
 Y -0.27071E-01  0.18453E+00 -0.61658E-01
 Z  0.14612E-01 -0.61658E-01  0.27731E+00
 TENSOR EIGENVALUES:
 A  0.13883E+00  B  0.17418E+00  C  0.31239E+00
 PRINCIPAL AXES:
         X             Y             Z
 A  0.64173E+00  0.72350E+00  0.25442E+00
 B -0.74811E+00  0.51750E+00  0.41536E+00
 C  0.16884E+00 -0.45688E+00  0.87336E+00
 NON BONDING WANNIER FUNCTION
 DISTANCE CENTROID-ATOM    3(  0  0  0) :   0.45925E+00
 ATOMIC POPULATION DATA:
  3 ZN(  0  0  0)  1.0036
 A.O. POPULATIONS OF ATOM    3(  0  0  0):
  -0.0000  -0.0038   0.0605   0.0427   0.0011   0.0001   0.0000  -0.0003
  -0.0000  -0.0003  -0.0021  -0.0071   0.0074   0.0558   0.1942   0.0019
   0.0134   0.0476   0.1233   0.0359   0.1579   0.0101   0.0000   0.0732
   0.0216   0.0932   0.0060   0.0000   0.0270   0.0086   0.0335   0.0022
   0.0000
~~~~~~~~~~~~~~~~~~~~~~~~~~~~~~~~~~~~~~~~~~~~~~~~~~~~~~~~~~~~~~~~~~~~~~~~~~~~~~~~
 WANNIER NUMBER   76 ATOMIC EXTENT  1.1154
 CENTROID'S COORDINATES R0:   -0.39736E+01    0.89111E+00    0.54328E+00
 EXPECTATION VALUE OF (R-R0)**2:  0.16688E+01
 SECOND ORDER TENSOR IN CARTESIAN AXES:
         X             Y             Z
 X  0.43815E+00 -0.40132E-03  0.30152E-03
 Y -0.40132E-03  0.44863E+00  0.48687E-01
 Z  0.30152E-03  0.48687E-01  0.78203E+00
 TENSOR EIGENVALUES:
 A  0.43810E+00  B  0.44172E+00  C  0.78899E+00
 PRINCIPAL AXES:
         X             Y             Z
 A  0.99249E+00  0.12100E+00 -0.17999E-01
 B -0.12233E+00  0.98250E+00 -0.14046E+00
 C  0.68879E-03  0.14160E+00  0.98992E+00
 BONDING WANNIER FUNCTION BETWEEN ATOMS:
 A:  12 F (  0  0  0) X -0.397391E+01 Y  0.863835E+00 Z -0.374612E-01 (AU)
 B:   4 ZN(  0  0  0) X -0.397391E+01 Y  0.238801E+01 Z  0.362288E+01 (AU)
 DISTANCE OF THE CENTROID FROM THE ATOMS A,B AND FROM THE A-B BOND:
  0.58138E+00  0.34241E+01  0.19806E+00
 POLARISATION FRACTION (0: COVALENT; 1: VERY IONIC)  0.72429E+00
 ATOMIC POPULATION DATA:
  4 ZN(  0  0  0)  0.0502  12 F (  0  0  0)  0.9455
 A.O. POPULATIONS OF ATOM    4(  0  0  0):
  -0.0000   0.0000   0.0005  -0.0008   0.0008   0.0210   0.0000   0.0060
   0.0207   0.0000  -0.0000  -0.0000  -0.0000   0.0001   0.0004   0.0000
  -0.0000  -0.0000   0.0001   0.0000   0.0002   0.0000   0.0000  -0.0001
   0.0000  -0.0001  -0.0000   0.0000   0.0007   0.0000   0.0006   0.0001
   0.0000
 A.O. POPULATIONS OF ATOM   12(  0  0  0):
   0.0014  -0.0077   0.0660   0.1145   0.0719   0.0000  -0.0001   0.2255
   0.0000   0.0001   0.2200   0.0000   0.0001   0.2537   0.0000   0.0000
   0.0000   0.0000   0.0000
~~~~~~~~~~~~~~~~~~~~~~~~~~~~~~~~~~~~~~~~~~~~~~~~~~~~~~~~~~~~~~~~~~~~~~~~~~~~~~~~

 ATOMIC DELOCALISATION INDEX (BEFORE BOYS)     1.025639171    
 NORM        76.0000000012   (ERR PER WF    0.16E-10)
 DIPOLE MOMENT(AU)  0.31791268E+02 -0.36030628E-06  0.80017952E+01
 TTTTTTTTTTTTTTTTTTTTTTTTTTTTTT WRPOP       TELAPSE      197.16 TCPU      197.12
 ------------------------------------------------------------------------------------
 TTTTTTTTTTTTTTTTTTTTTTTTTTTTTT SYMMEND2    TELAPSE      197.17 TCPU      197.13
 TTTTTTTTTTTTTTTTTTTTTTTTTTTTTT LOCALI      TELAPSE      197.18 TCPU      197.13
 ENDPROP   
 TTTTTTTTTTTTTTTTTTTTTTTTTTTTTT END         TELAPSE      197.18 TCPU      197.13
 EEEEEEEEEE TERMINATION  DATE 24 01 2025 TIME 17:13:39.9
------------------------------------------------------
properties finished normally
------------------------------------------------------
Localized Wannier Functions fort.80 saved as /Data/Sachs/projekte/ferroelectric_fluorides/calculations/BaZnF4_oS24_SG63_PBE0_tzvp_wannier/4.wannier
File fort.37 saved as /Data/Sachs/projekte/ferroelectric_fluorides/calculations/BaZnF4_oS24_SG63_PBE0_tzvp_wannier/4.locali
Date: 2025-01-24 17:13:39