Date: 2024-11-07 14:27:53
Running on: f0706
Temporary directory: /tmp/1652426.fritz/g100fb10_crystaljob_1652426/CRY_1175923
Executable: /home/hpc/g100fb/g100fb10/software/crystal23/bin/Pproperties
Output: /home/hpc/g100fb/g100fb10/projekte/ferroelectric_fluorides/calculations/BaZnF4_oS24_SG63_PBE0_tzvp_polpath/2.prop.out
Properties input data 2.d3
NEWK
0 16
16 16 11
1 0
POLARI
END
Creating temporary directory /tmp/1652426.fritz/g100fb10_crystaljob_1652426/CRY_1175923 on node 
SCF wavefunction 2.w is available as /tmp/1652426.fritz/g100fb10_crystaljob_1652426/CRY_1175923/fort.9
          72 PROCESSORS WORKING

         
 *******************************************************************************
 *                                                                             *
 *                               CRYSTAL23                                     *
 *                      public : 1.0.1 - October 2022                          *
 *                       HTTP://WWW.CRYSTAL.UNITO.IT                           *
 *                                                                             *
 *                              MAIN AUTHORS                                   *
 *                                                                             *
 *  R. DOVESI(1,11), V.R. SAUNDERS(2), C. ROETTI(1,11), R. ORLANDO(1,11),      *
 *  C.M. ZICOVICH-WILSON(1,3), F. PASCALE(4), B. CIVALLERI(1,11),              *
 *  K. DOLL(5), N.M. HARRISON(6), I.J. BUSH(7), Ph. D'ARCO(8),                 *
 *  M. LLUNELL(9), M. CAUSA'(10), Y. NOEL(8), L. MASCHIO(1,11), A. ERBA(1,11)  *
 *  M. RE'RAT(14), S. CASASSA(1,11), B.G. SEARLE(2), J.K. DESMARAIS(1)         *
 *                                                                             *
 *        CONTRIBUTIONS TO THE CODE HAVE ALSO BEEN GIVEN BY                    *
 *                                                                             *
 *  M. FERRABONE(1,11), M. DE LA PIERRE(1,11), M. FERRERO(1,11),               *
 *  J. BAIMA(1,11), E. ALBANESE(1,11), M.F. PEINTINGER(12), R. BAST(13),       *
 *  B. KIRTMAN(15), V. LACIVITA(1,11), R. DEMICHELIS(1,16)                     *
 *  G. BRANDEBURG(17), S. SALUSTRO(1,11), G. SANSONE(1,11)                     *
 *  M.T. RUGGIERO(18), L.E. DAGA(1), L. DONA'(1), A. COSSARD(1)                *
 *                                                                             *
 * (1) THEORETICAL CHEMISTRY GROUP - UNIVERSITA' DI TORINO - TORINO (ITALY)    *
 * (2) SCIENTIFIC COMPUTING DEPARTMENT - STFC DARESBURY (UK)                   *
 * (3) UNIVERSIDAD AUTONOMA DEL ESTADO DE MORELOS - CUERNAVACA (MEXICO)        *
 * (4) UNIVERSITE' DE LORRAINE - NANCY (FRANCE)                                *
 * (5) UNIVERSITAET STUTTGART- STUTTGART (GERMANY)                             *
 * (6) IMPERIAL COLLEGE - LONDON (UK)                                          *
 * (7) SCIENTIFIC COMPUTING DEPARTMENT - STFC RAL (UK)                         *
 * (8) UPMC - SORBONNE UNIVERSITES - PARIS (FRANCE)                            *
 * (9) UNIVERSIDAD DE BARCELONA - BARCELONA (SPAIN)                            *
 *(10) UNIVERSITA' DI NAPOLI "FEDERICO II" - NAPOLI (ITALY)                    *
 *(11) NIS - NANOSTRUCTURED INTERFACES AND SURFACES - TORINO (ITALY)           *
 *(12) MPI FUER CHEMISCHE ENERGIEKONVERSION - MUELHEIM AN DER RUHR (GERMANY)   *
 *(13) UNIVERSITY OF TROMSO - TROMSO (NORWAY)                                  *
 *(14) UNIVERSITE' DE PAU ET DES PAYS DE L'ADOUR - PAU (FRANCE)                *
 *(15) UNIVERSITY OF CALIFORNIA SANTA BARBARA - SANTA BARBARA (USA)            *
 *(16) CURTIN UNIVERSITY - PERTH (AUSTRALIA)                                   *
 *(17) UNIVERSITY COLLEGE LONDON - LONDON (UK)                                 *
 *(18) UNIVERSITY OF VERMONT - BURLINGTON (USA)                                *
 *                                                                             *
 *******************************************************************************
 EEEEEEEEEE STARTING  DATE 07 11 2024 TIME 14:27:54.4
 INFORMATION **** SET_MPP **** PCRYSTAL CALCULATION

 *******************************************************************************
 Polarisation path Nr. 2.                                                        
 CRYSTAL - PROPERTIES - TYPE OF CALCULATION :  RESTRICTED CLOSED SHELL
 *******************************************************************************
 KOHN-SHAM HAMILTONIAN

 (EXCHANGE)[CORRELATION] FUNCTIONAL:(PERDEW-BURKE-ERNZERHOF)[PERDEW-BURKE-ERNZERHOF]


 HYBRID EXCHANGE - PERCENTAGE OF FOCK EXCHANGE    25.0000

 DIRECT LATTICE VECTOR COMPONENTS (ANGSTROM)
         2.10290    7.28597    0.00000
        -2.10290    7.28597    0.00000
         0.00000    0.00000    5.86498

 LATTICE PARAMETERS  (ANGSTROM AND DEGREES) - PRIMITIVE CELL
       A          B          C         ALPHA      BETA     GAMMA        VOLUME
    7.58337    7.58337    5.86498     90.0000   90.0000   32.1988     179.72270
 *******************************************************************************
 N. OF ATOMS PER CELL        12 COULOMB OVERLAP TOL          (T1) 10**   -8
 NUMBER OF SHELLS           100 COULOMB PENETRATION TOL      (T2) 10**   -8
 NUMBER OF AO               256 EXCHANGE OVERLAP TOL         (T3) 10**   -8
 N. OF ELECTRONS PER CELL   152 EXCHANGE PSEUDO OVP (F(G))   (T4) 10**   -8
 CORE ELECTRONS PER CELL     52 EXCHANGE PSEUDO OVP (P(G))   (T5) 10**  -16
 N. OF SYMMETRY OPERATORS     4 POLE ORDER IN MONO ZONE                   4
 CORE  PSEUDO POTENTIAL         TOL. ON PSEUDO              (TP) 10**- 6
 *******************************************************************************
   ATOM N.AT.  SHELL    X(A)      Y(A)      Z(A)      EXAD       N.ELECT.
 *******************************************************************************
    1  256 BA    6    -0.000     2.110    -0.778   2.732E-01       8.287
    2  256 BA    6     0.000    -2.110     2.154   2.732E-01       8.287
    3   30 ZN   12    -2.103    -1.332    -0.897   3.903E-01      28.867
    4   30 ZN   12    -2.103     1.332     2.036   3.903E-01      28.867
    5    9 F     8    -2.103    -2.840    -2.218   1.400E+00       9.734
    6    9 F     8    -2.103     2.840     0.714   1.400E+00       9.734
    7    9 F     8    -2.103    -2.605     0.632   1.400E+00       9.734
    8    9 F     8    -2.103     2.605    -2.300   1.400E+00       9.734
    9    9 F     8    -0.000     1.162     1.991   1.400E+00       9.696
   10    9 F     8     0.000    -1.162    -0.942   1.400E+00       9.696
   11    9 F     8    -2.103    -0.228    -2.598   1.400E+00       9.682
   12    9 F     8    -2.103     0.228     0.334   1.400E+00       9.682
 *******************************************************************************
 DE(K)                   0.000E+00  ENERGY LEVEL SHIFTING        0.00000
 TOTAL ENERGY -4.4084071068911E+03  CONVERGENCE ON ENER        1.741E-08
 KIN. ENERGY   4.3659565466253E+03  VIR. COEFF.           1.01557760E+00
 N. OF SCF CYCLES                9  FERMI ENERGY              -0.247E+00
 WEIGHT OF F(I) IN F(I+1)      80
 SHRINK. FACT.(MONKH.)     8  8  5  SHRINKING FACTOR(GILAT NET)        8
 NUMBER OF K POINTS IN THE IBZ  63  CELL VOLUME (A.U.)       1212.828899
 *******************************************************************************

 GCALCO - MAX INDICES DIRECT LATTICE VECTOR    16    16    11
 NO.OF VECTORS CREATED 6999 STARS 1033 RMAX   126.66320 BOHR
 TTTTTTTTTTTTTTTTTTTTTTTTTTTTTT gordsh1     TELAPSE        0.72 TCPU        0.22

 MATRIX SIZE: P(G)  374176, F(G)   64660, P(G) IRR   59817, F(G) IRR   22324
 MAX G-VECTOR INDEX FOR 1- AND 2-ELECTRON INTEGRALS 101


 CAPPA:IS1  8;IS2  8;IS3  5; K PTS MONK NET  63; SYMMOPS:K SPACE   8;G SPACE   4


 CAPPA:IS1 16;IS2 16;IS3 11; K PTS MONK NET 438; SYMMOPS:K SPACE   8;G SPACE   4

 *******************************************************************************
 RESTART WITH NEW K POINTS NET
 *******************************************************************************
 POINTS IN THE IBZ                 438 POINTS(GILAT NET)               438
 SHRINK FACTORS(MONK.)        16 16 11 SHRINK FACTOR(GILAT)             16
 *******************************************************************************
 *** K POINTS COORDINATES (OBLIQUE COORDINATES IN UNITS OF IS = 16)
   1-R(  0  0  0)   2-C(  1  0  0)   3-C(  2  0  0)   4-C(  3  0  0)
   5-C(  4  0  0)   6-C(  5  0  0)   7-C(  6  0  0)   8-C(  7  0  0)
   9-R(  8  0  0)  10-C(  1  1  0)  11-C(  2  1  0)  12-C(  3  1  0)
  13-C(  4  1  0)  14-C(  5  1  0)  15-C(  6  1  0)  16-C(  7  1  0)
  17-C(  8  1  0)  18-C(  9  1  0)  19-C( 10  1  0)  20-C( 11  1  0)
  21-C( 12  1  0)  22-C( 13  1  0)  23-C( 14  1  0)  24-C( 15  1  0)
  25-C(  2  2  0)  26-C(  3  2  0)  27-C(  4  2  0)  28-C(  5  2  0)
  29-C(  6  2  0)  30-C(  7  2  0)  31-C(  8  2  0)  32-C(  9  2  0)
  33-C( 10  2  0)  34-C( 11  2  0)  35-C( 12  2  0)  36-C( 13  2  0)
  37-C( 14  2  0)  38-C(  3  3  0)  39-C(  4  3  0)  40-C(  5  3  0)
  41-C(  6  3  0)  42-C(  7  3  0)  43-C(  8  3  0)  44-C(  9  3  0)
  45-C( 10  3  0)  46-C( 11  3  0)  47-C( 12  3  0)  48-C( 13  3  0)
  49-C(  4  4  0)  50-C(  5  4  0)  51-C(  6  4  0)  52-C(  7  4  0)
  53-C(  8  4  0)  54-C(  9  4  0)  55-C( 10  4  0)  56-C( 11  4  0)
  57-C( 12  4  0)  58-C(  5  5  0)  59-C(  6  5  0)  60-C(  7  5  0)
  61-C(  8  5  0)  62-C(  9  5  0)  63-C( 10  5  0)  64-C( 11  5  0)
  65-C(  6  6  0)  66-C(  7  6  0)  67-C(  8  6  0)  68-C(  9  6  0)
  69-C( 10  6  0)  70-C(  7  7  0)  71-C(  8  7  0)  72-C(  9  7  0)
  73-R(  8  8  0)  74-C(  0  0  1)  75-C(  1  0  1)  76-C(  2  0  1)
  77-C(  3  0  1)  78-C(  4  0  1)  79-C(  5  0  1)  80-C(  6  0  1)
  81-C(  7  0  1)  82-C(  8  0  1)  83-C(  1  1  1)  84-C(  2  1  1)
  85-C(  3  1  1)  86-C(  4  1  1)  87-C(  5  1  1)  88-C(  6  1  1)
  89-C(  7  1  1)  90-C(  8  1  1)  91-C(  9  1  1)  92-C( 10  1  1)
  93-C( 11  1  1)  94-C( 12  1  1)  95-C( 13  1  1)  96-C( 14  1  1)
  97-C( 15  1  1)  98-C(  2  2  1)  99-C(  3  2  1) 100-C(  4  2  1)
 101-C(  5  2  1) 102-C(  6  2  1) 103-C(  7  2  1) 104-C(  8  2  1)
 105-C(  9  2  1) 106-C( 10  2  1) 107-C( 11  2  1) 108-C( 12  2  1)
 109-C( 13  2  1) 110-C( 14  2  1) 111-C(  3  3  1) 112-C(  4  3  1)
 113-C(  5  3  1) 114-C(  6  3  1) 115-C(  7  3  1) 116-C(  8  3  1)
 117-C(  9  3  1) 118-C( 10  3  1) 119-C( 11  3  1) 120-C( 12  3  1)
 121-C( 13  3  1) 122-C(  4  4  1) 123-C(  5  4  1) 124-C(  6  4  1)
 125-C(  7  4  1) 126-C(  8  4  1) 127-C(  9  4  1) 128-C( 10  4  1)
 129-C( 11  4  1) 130-C( 12  4  1) 131-C(  5  5  1) 132-C(  6  5  1)
 133-C(  7  5  1) 134-C(  8  5  1) 135-C(  9  5  1) 136-C( 10  5  1)
 137-C( 11  5  1) 138-C(  6  6  1) 139-C(  7  6  1) 140-C(  8  6  1)
 141-C(  9  6  1) 142-C( 10  6  1) 143-C(  7  7  1) 144-C(  8  7  1)
 145-C(  9  7  1) 146-C(  8  8  1) 147-C(  0  0  2) 148-C(  1  0  2)
 149-C(  2  0  2) 150-C(  3  0  2) 151-C(  4  0  2) 152-C(  5  0  2)
 153-C(  6  0  2) 154-C(  7  0  2) 155-C(  8  0  2) 156-C(  1  1  2)
 157-C(  2  1  2) 158-C(  3  1  2) 159-C(  4  1  2) 160-C(  5  1  2)
 161-C(  6  1  2) 162-C(  7  1  2) 163-C(  8  1  2) 164-C(  9  1  2)
 165-C( 10  1  2) 166-C( 11  1  2) 167-C( 12  1  2) 168-C( 13  1  2)
 169-C( 14  1  2) 170-C( 15  1  2) 171-C(  2  2  2) 172-C(  3  2  2)
 173-C(  4  2  2) 174-C(  5  2  2) 175-C(  6  2  2) 176-C(  7  2  2)
 177-C(  8  2  2) 178-C(  9  2  2) 179-C( 10  2  2) 180-C( 11  2  2)
 181-C( 12  2  2) 182-C( 13  2  2) 183-C( 14  2  2) 184-C(  3  3  2)
 185-C(  4  3  2) 186-C(  5  3  2) 187-C(  6  3  2) 188-C(  7  3  2)
 189-C(  8  3  2) 190-C(  9  3  2) 191-C( 10  3  2) 192-C( 11  3  2)
 193-C( 12  3  2) 194-C( 13  3  2) 195-C(  4  4  2) 196-C(  5  4  2)
 197-C(  6  4  2) 198-C(  7  4  2) 199-C(  8  4  2) 200-C(  9  4  2)
 201-C( 10  4  2) 202-C( 11  4  2) 203-C( 12  4  2) 204-C(  5  5  2)
 205-C(  6  5  2) 206-C(  7  5  2) 207-C(  8  5  2) 208-C(  9  5  2)
 209-C( 10  5  2) 210-C( 11  5  2) 211-C(  6  6  2) 212-C(  7  6  2)
 213-C(  8  6  2) 214-C(  9  6  2) 215-C( 10  6  2) 216-C(  7  7  2)
 217-C(  8  7  2) 218-C(  9  7  2) 219-C(  8  8  2) 220-C(  0  0  3)
 221-C(  1  0  3) 222-C(  2  0  3) 223-C(  3  0  3) 224-C(  4  0  3)
 225-C(  5  0  3) 226-C(  6  0  3) 227-C(  7  0  3) 228-C(  8  0  3)
 229-C(  1  1  3) 230-C(  2  1  3) 231-C(  3  1  3) 232-C(  4  1  3)
 233-C(  5  1  3) 234-C(  6  1  3) 235-C(  7  1  3) 236-C(  8  1  3)
 237-C(  9  1  3) 238-C( 10  1  3) 239-C( 11  1  3) 240-C( 12  1  3)
 241-C( 13  1  3) 242-C( 14  1  3) 243-C( 15  1  3) 244-C(  2  2  3)
 245-C(  3  2  3) 246-C(  4  2  3) 247-C(  5  2  3) 248-C(  6  2  3)
 249-C(  7  2  3) 250-C(  8  2  3) 251-C(  9  2  3) 252-C( 10  2  3)
 253-C( 11  2  3) 254-C( 12  2  3) 255-C( 13  2  3) 256-C( 14  2  3)
 257-C(  3  3  3) 258-C(  4  3  3) 259-C(  5  3  3) 260-C(  6  3  3)
 261-C(  7  3  3) 262-C(  8  3  3) 263-C(  9  3  3) 264-C( 10  3  3)
 265-C( 11  3  3) 266-C( 12  3  3) 267-C( 13  3  3) 268-C(  4  4  3)
 269-C(  5  4  3) 270-C(  6  4  3) 271-C(  7  4  3) 272-C(  8  4  3)
 273-C(  9  4  3) 274-C( 10  4  3) 275-C( 11  4  3) 276-C( 12  4  3)
 277-C(  5  5  3) 278-C(  6  5  3) 279-C(  7  5  3) 280-C(  8  5  3)
 281-C(  9  5  3) 282-C( 10  5  3) 283-C( 11  5  3) 284-C(  6  6  3)
 285-C(  7  6  3) 286-C(  8  6  3) 287-C(  9  6  3) 288-C( 10  6  3)
 289-C(  7  7  3) 290-C(  8  7  3) 291-C(  9  7  3) 292-C(  8  8  3)
 293-C(  0  0  4) 294-C(  1  0  4) 295-C(  2  0  4) 296-C(  3  0  4)
 297-C(  4  0  4) 298-C(  5  0  4) 299-C(  6  0  4) 300-C(  7  0  4)
 301-C(  8  0  4) 302-C(  1  1  4) 303-C(  2  1  4) 304-C(  3  1  4)
 305-C(  4  1  4) 306-C(  5  1  4) 307-C(  6  1  4) 308-C(  7  1  4)
 309-C(  8  1  4) 310-C(  9  1  4) 311-C( 10  1  4) 312-C( 11  1  4)
 313-C( 12  1  4) 314-C( 13  1  4) 315-C( 14  1  4) 316-C( 15  1  4)
 317-C(  2  2  4) 318-C(  3  2  4) 319-C(  4  2  4) 320-C(  5  2  4)
 321-C(  6  2  4) 322-C(  7  2  4) 323-C(  8  2  4) 324-C(  9  2  4)
 325-C( 10  2  4) 326-C( 11  2  4) 327-C( 12  2  4) 328-C( 13  2  4)
 329-C( 14  2  4) 330-C(  3  3  4) 331-C(  4  3  4) 332-C(  5  3  4)
 333-C(  6  3  4) 334-C(  7  3  4) 335-C(  8  3  4) 336-C(  9  3  4)
 337-C( 10  3  4) 338-C( 11  3  4) 339-C( 12  3  4) 340-C( 13  3  4)
 341-C(  4  4  4) 342-C(  5  4  4) 343-C(  6  4  4) 344-C(  7  4  4)
 345-C(  8  4  4) 346-C(  9  4  4) 347-C( 10  4  4) 348-C( 11  4  4)
 349-C( 12  4  4) 350-C(  5  5  4) 351-C(  6  5  4) 352-C(  7  5  4)
 353-C(  8  5  4) 354-C(  9  5  4) 355-C( 10  5  4) 356-C( 11  5  4)
 357-C(  6  6  4) 358-C(  7  6  4) 359-C(  8  6  4) 360-C(  9  6  4)
 361-C( 10  6  4) 362-C(  7  7  4) 363-C(  8  7  4) 364-C(  9  7  4)
 365-C(  8  8  4) 366-C(  0  0  5) 367-C(  1  0  5) 368-C(  2  0  5)
 369-C(  3  0  5) 370-C(  4  0  5) 371-C(  5  0  5) 372-C(  6  0  5)
 373-C(  7  0  5) 374-C(  8  0  5) 375-C(  1  1  5) 376-C(  2  1  5)
 377-C(  3  1  5) 378-C(  4  1  5) 379-C(  5  1  5) 380-C(  6  1  5)
 381-C(  7  1  5) 382-C(  8  1  5) 383-C(  9  1  5) 384-C( 10  1  5)
 385-C( 11  1  5) 386-C( 12  1  5) 387-C( 13  1  5) 388-C( 14  1  5)
 389-C( 15  1  5) 390-C(  2  2  5) 391-C(  3  2  5) 392-C(  4  2  5)
 393-C(  5  2  5) 394-C(  6  2  5) 395-C(  7  2  5) 396-C(  8  2  5)
 397-C(  9  2  5) 398-C( 10  2  5) 399-C( 11  2  5) 400-C( 12  2  5)
 401-C( 13  2  5) 402-C( 14  2  5) 403-C(  3  3  5) 404-C(  4  3  5)
 405-C(  5  3  5) 406-C(  6  3  5) 407-C(  7  3  5) 408-C(  8  3  5)
 409-C(  9  3  5) 410-C( 10  3  5) 411-C( 11  3  5) 412-C( 12  3  5)
 413-C( 13  3  5) 414-C(  4  4  5) 415-C(  5  4  5) 416-C(  6  4  5)
 417-C(  7  4  5) 418-C(  8  4  5) 419-C(  9  4  5) 420-C( 10  4  5)
 421-C( 11  4  5) 422-C( 12  4  5) 423-C(  5  5  5) 424-C(  6  5  5)
 425-C(  7  5  5) 426-C(  8  5  5) 427-C(  9  5  5) 428-C( 10  5  5)
 429-C( 11  5  5) 430-C(  6  6  5) 431-C(  7  6  5) 432-C(  8  6  5)
 433-C(  9  6  5) 434-C( 10  6  5) 435-C(  7  7  5) 436-C(  8  7  5)
 437-C(  9  7  5) 438-C(  8  8  5)

 FERMI ENERGY AND DENSITY MATRIX CALCULATION ON COMPUTED EIGENVECTORS
 DENSITY MATRIX AT SCF CYCLE (  9+1)

 INSULATING STATE
 TOP OF VALENCE BANDS -    BAND     76; K    1; EIG -2.4709810E-01 AU
 BOTTOM OF VIRTUAL BANDS - BAND     77; K    1; EIG  6.2428114E-02 AU
 DIRECT ENERGY BAND GAP:   8.4226 eV

 CORE DENSITY MATRIX CALCULATION
 TTTTTTTTTTTTTTTTTTTTTTTTTTTTTT NEWK        TELAPSE        2.97 TCPU        2.45
 TTTTTTTTTTTTTTTTTTTTTTTTTTTTTT SMAT        TELAPSE       44.19 TCPU       41.95
 TTTTTTTTTTTTTTTTTTTTTTTTTTTTTT POLAR2      TELAPSE       44.26 TCPU       42.01

 %%%%%%%%%%%%%%%%%%%%%%%%%%%%%%%%%%%%%%%%%%%%%%%%%%%%%%%%%%%%%%%%%%%%%%%%%%%%%%%
 %%                                                                           %%
 %%                         SPONTANEOUS POLARIZATION                          %%
 %%                       THROUGH BERRY PHASE APPROACH                        %%
 %%                                                                           %%
 %%%%%%%%%%%%%%%%%%%%%%%%%%%%%%%%%%%%%%%%%%%%%%%%%%%%%%%%%%%%%%%%%%%%%%%%%%%%%%%

                     THIS CALCULATION REFERS TO JUST ONE OF
                THE TWO GEOMETRIES REQUIRED IN THE EVALUATION OF
                THE SPONTANEOUS POLARIZATION / PIEZOELECTRICITY

                    DATA HAVE BEEN STORED IN FORTRAN UNIT 27

                 NOW RUN THE CALCULATION FOR THE OTHER GEOMETRY
                               (IF NOT DONE YET)
        THEN RUN A THIRD CALCULATION WITH THE KEYWORD "SPOLBP" / "PIEZOBP"

 TTTTTTTTTTTTTTTTTTTTTTTTTTTTTT POLARI      TELAPSE       46.42 TCPU       44.17
 ENDPROP   
 TTTTTTTTTTTTTTTTTTTTTTTTTTTTTT END         TELAPSE       46.42 TCPU       44.17
 EEEEEEEEEE TERMINATION  DATE 07 11 2024 TIME 14:28:40.1
------------------------------------------------------
Pproperties finished normally
------------------------------------------------------
File fort.27 saved as /home/hpc/g100fb/g100fb10/projekte/ferroelectric_fluorides/calculations/BaZnF4_oS24_SG63_PBE0_tzvp_polpath/2.polari
Temporary directory /tmp/1652426.fritz/g100fb10_crystaljob_1652426/CRY_1175923 removed from node 
Date: 2024-11-07 14:28:40